                         Program Version 4.2.1 -  RELEASE  -
|  1> #------------------------------------------------------
|  2> # After the Orca calculation you will get two inter-
|  3> # action energies at the end of the output file. The
|  4> # difference is the negative BSSE.
|  5> #
|  6> # The script will set the orbital guess PModel for
|  7> # jobs 2-5 since Orca will try to use the .gbw-files of
|  8> # the earlier calculations which does not work for jobs
|  9> # 2 and 3 and does not help for jobs 4 and 5.
| 10> #------------------------------------------------------
| 11> #
| 12> #-------------------------
| 13> #     First the dimer
| 14> #-------------------------
| 15>
| 16> %id "dimer"
| 17> ! DLPNO-CCSD(T) aug-cc-pVTZ aug-cc-pVTZ/C TightPNO
| 18> %maxcore 2000
| 19> %pal
| 20> nprocs 10
| 21> end
| 22>
| 23> * xyz 0 1
| 24> H    -0.488267     1.549742    -1.408848
| 25> O    -0.453976     2.534183    -1.399941
| 26> H    -1.397495     2.777556    -1.423680
| 27> H    -1.077884    -0.382374    -2.060070
| 28> O    -0.340933    -0.206968    -1.434877
| 29> H     0.480757    -0.265549    -1.998114
| 30> H     1.187103     2.296033    -0.372660
| 31> O     1.959231     1.845218     0.014694
| 32> H     1.639942     0.960108     0.234918
| 33> H     0.932536    -1.743280     0.871883
| 34> O     1.707631    -1.239914     1.208268
| 35> H     2.320982    -1.964590     1.469140
| 36> H    -1.277101    -2.594218     0.046512
| 37> O    -0.337475    -2.485747    -0.161063
| 38> H    -0.351778    -1.618876    -0.664635
| 39> H    -2.809094    -0.733862     0.006994
| 40> O    -3.067670    -1.579466    -0.429121
| 41> H    -3.484168    -1.253280    -1.248844
| 42> H     2.909421    -1.001659    -0.113586
| 43> O     3.581357    -0.837560    -0.811191
| 44> H     3.999791    -0.000923    -0.560700
| 45> H    -1.722649     0.977572     1.243224
| 46> O    -2.608703     0.883831     0.789101
| 47> H    -2.612158     1.533252     0.072119
| 48> N    -0.264879     1.009637     2.298144
| 49> H     0.325524     1.816916     2.115465
| 50> H     0.342556     0.192694     2.235598
| 51> H    -0.579567     1.078657     3.261317
| 52> *
| 53>
| 54> #--------------------------
| 55> #   Now the fragments at
| 56> #      dimer-geometry
| 57> #-------------------------
| 58>
| 59> $new_job
| 60> %id "fragment"
| 61> %scf guess PModel end
| 62> ! DLPNO-CCSD(T) aug-cc-pVTZ aug-cc-pVTZ/C TightPNO
| 63> %maxcore 2000
| 64> %pal
| 65> nprocs 10
| 66> end
| 67>
| 68> * xyz 0 1
| 69> H    -0.488267     1.549742    -1.408848
| 70> O    -0.453976     2.534183    -1.399941
| 71> H    -1.397495     2.777556    -1.423680
| 72> H    -1.077884    -0.382374    -2.060070
| 73> O    -0.340933    -0.206968    -1.434877
| 74> H     0.480757    -0.265549    -1.998114
| 75> H     1.187103     2.296033    -0.372660
| 76> O     1.959231     1.845218     0.014694
| 77> H     1.639942     0.960108     0.234918
| 78> H     0.932536    -1.743280     0.871883
| 79> O     1.707631    -1.239914     1.208268
| 80> H     2.320982    -1.964590     1.469140
| 81> H    -1.277101    -2.594218     0.046512
| 82> O    -0.337475    -2.485747    -0.161063
| 83> H    -0.351778    -1.618876    -0.664635
| 84> H    -2.809094    -0.733862     0.006994
| 85> O    -3.067670    -1.579466    -0.429121
| 86> H    -3.484168    -1.253280    -1.248844
| 87> H     2.909421    -1.001659    -0.113586
| 88> O     3.581357    -0.837560    -0.811191
| 89> H     3.999791    -0.000923    -0.560700
| 90> H    -1.722649     0.977572     1.243224
| 91> O    -2.608703     0.883831     0.789101
| 92> H    -2.612158     1.533252     0.072119
| 93> *
| 94>
| 95> $new_job
| 96> %id "fragment"
| 97> %scf guess PModel end
| 98> ! DLPNO-CCSD(T) aug-cc-pVTZ aug-cc-pVTZ/C TightPNO
| 99> %maxcore 2000
|100> %pal
|101> nprocs 10
|102> end
|103>
|104> * xyz 0 1
|105> N    -0.264879     1.009637     2.298144
|106> H     0.325524     1.816916     2.115465
|107> H     0.342556     0.192694     2.235598
|108> H    -0.579567     1.078657     3.261317
|109> *
|110>
|111> #--------------------------
|112> #   Now the fragments at
|113> #   dimer-geometry with
|114> #     the dimer-basis
|115> #-------------------------
|116>
|117> $new_job
|118> %id "ghost"
|119> %scf guess PModel end
|120> ! DLPNO-CCSD(T) aug-cc-pVTZ aug-cc-pVTZ/C TightPNO
|121> %maxcore 2000
|122> %pal
|123> nprocs 10
|124> end
|125>
|126> * xyz 0 1
|127> H         -0.488267     1.549742    -1.408848
|128> O         -0.453976     2.534183    -1.399941
|129> H         -1.397495     2.777556    -1.423680
|130> H         -1.077884    -0.382374    -2.060070
|131> O         -0.340933    -0.206968    -1.434877
|132> H          0.480757    -0.265549    -1.998114
|133> H          1.187103     2.296033    -0.372660
|134> O          1.959231     1.845218     0.014694
|135> H          1.639942     0.960108     0.234918
|136> H          0.932536    -1.743280     0.871883
|137> O          1.707631    -1.239914     1.208268
|138> H          2.320982    -1.964590     1.469140
|139> H         -1.277101    -2.594218     0.046512
|140> O         -0.337475    -2.485747    -0.161063
|141> H         -0.351778    -1.618876    -0.664635
|142> H         -2.809094    -0.733862     0.006994
|143> O         -3.067670    -1.579466    -0.429121
|144> H         -3.484168    -1.253280    -1.248844
|145> H          2.909421    -1.001659    -0.113586
|146> O          3.581357    -0.837560    -0.811191
|147> H          3.999791    -0.000923    -0.560700
|148> H         -1.722649     0.977572     1.243224
|149> O         -2.608703     0.883831     0.789101
|150> H         -2.612158     1.533252     0.072119
|151> N :       -0.264879     1.009637     2.298144
|152> H :        0.325524     1.816916     2.115465
|153> H :        0.342556     0.192694     2.235598
|154> H :       -0.579567     1.078657     3.261317
|155> *
|156>
|157> $new_job
|158> %id "ghost"
|159> %scf guess PModel end
|160> ! DLPNO-CCSD(T) aug-cc-pVTZ aug-cc-pVTZ/C TightPNO
|161> %maxcore 2000
|162> %pal
|163> nprocs 10
|164> end
|165>
|166> * xyz 0 1
|167> H :       -0.488267     1.549742    -1.408848
|168> O :       -0.453976     2.534183    -1.399941
|169> H :       -1.397495     2.777556    -1.423680
|170> H :       -1.077884    -0.382374    -2.060070
|171> O :       -0.340933    -0.206968    -1.434877
|172> H :        0.480757    -0.265549    -1.998114
|173> H :        1.187103     2.296033    -0.372660
|174> O :        1.959231     1.845218     0.014694
|175> H :        1.639942     0.960108     0.234918
|176> H :        0.932536    -1.743280     0.871883
|177> O :        1.707631    -1.239914     1.208268
|178> H :        2.320982    -1.964590     1.469140
|179> H :       -1.277101    -2.594218     0.046512
|180> O :       -0.337475    -2.485747    -0.161063
|181> H :       -0.351778    -1.618876    -0.664635
|182> H :       -2.809094    -0.733862     0.006994
|183> O :       -3.067670    -1.579466    -0.429121
|184> H :       -3.484168    -1.253280    -1.248844
|185> H :        2.909421    -1.001659    -0.113586
|186> O :        3.581357    -0.837560    -0.811191
|187> H :        3.999791    -0.000923    -0.560700
|188> H :       -1.722649     0.977572     1.243224
|189> O :       -2.608703     0.883831     0.789101
|190> H :       -2.612158     1.533252     0.072119
|191> N         -0.264879     1.009637     2.298144
|192> H          0.325524     1.816916     2.115465
|193> H          0.342556     0.192694     2.235598
|194> H         -0.579567     1.078657     3.261317
|195> *
|196>
|197>
|198>                          ****END OF INPUT****
 Total Charge           Charge          ....    0
 Multiplicity           Mult            ....    1
 Number of Electrons    NEL             ....   90
E(0)                                       ...   -664.718814729
E(0)                                       ...   -664.718814729
E(CORR)(strong-pairs)                      ...     -2.485927400
E(CORR)(weak-pairs)                        ...     -0.002628911
E(CORR)(corrected)                         ...     -2.488556311
E(TOT)                                     ...   -667.207371040
FINAL SINGLE POINT ENERGY      -667.289949239593
FINAL SINGLE POINT ENERGY      -610.783175142313
FINAL SINGLE POINT ENERGY       -56.480416560125
FINAL SINGLE POINT ENERGY      -610.784306543452

CARTESIAN COORDINATES (ANGSTROEM)
---------------------------------
  H     -0.488267    1.549742   -1.408848
  O     -0.453976    2.534183   -1.399941
  H     -1.397495    2.777556   -1.423680
  H     -1.077884   -0.382374   -2.060070
  O     -0.340933   -0.206968   -1.434877
  H      0.480757   -0.265549   -1.998114
  H      1.187103    2.296033   -0.372660
  O      1.959231    1.845218    0.014694
  H      1.639942    0.960108    0.234918
  H      0.932536   -1.743280    0.871883
  O      1.707631   -1.239914    1.208268
  H      2.320982   -1.964590    1.469140
  H     -1.277101   -2.594218    0.046512
  O     -0.337475   -2.485747   -0.161063
  H     -0.351778   -1.618876   -0.664635
  H     -2.809094   -0.733862    0.006994
  O     -3.067670   -1.579466   -0.429121
  H     -3.484168   -1.253280   -1.248844
  H      2.909421   -1.001659   -0.113586
  O      3.581357   -0.837560   -0.811191
  H      3.999791   -0.000923   -0.560700
  H     -1.722649    0.977572    1.243224
  O     -2.608703    0.883831    0.789101
  H     -2.612158    1.533252    0.072119
  N     -0.264879    1.009637    2.298144
  H      0.325524    1.816916    2.115465
  H      0.342556    0.192694    2.235598
  H     -0.579567    1.078657    3.261317

 Multiplicity           Mult            ....    1
 Number of Electrons    NEL             ....   10
 Basis Dimension        Dim             ....  851

ORBITAL ENERGIES
----------------

  NO   OCC          E(Eh)            E(eV)
   0   2.0000     -15.543360      -422.9563
   1   2.0000      -1.139409       -31.0049
   2   2.0000      -0.628705       -17.1079
   3   2.0000      -0.624879       -17.0038
   4   2.0000      -0.428655       -11.6643
   5   0.0000       0.017747         0.4829
   6   0.0000       0.032901         0.8953
   7   0.0000       0.034198         0.9306
   8   0.0000       0.034813         0.9473
   9   0.0000       0.051810         1.4098

MULLIKEN ATOMIC CHARGES
-----------------------
   0 H :   -0.003191
   1 O :   -0.001780
   2 H :    0.000063
   3 H :   -0.000215
   4 O :    0.011069
   5 H :   -0.000977
   6 H :    0.001018
   7 O :    0.007558
   8 H :   -0.003052
   9 H :   -0.001980
  10 O :    0.003021
  11 H :   -0.003444
  12 H :    0.000761
  13 O :   -0.002567
  14 H :   -0.002643
  15 H :   -0.003575
  16 O :   -0.000122
  17 H :    0.000051
  18 H :    0.001224
  19 O :    0.000083
  20 H :   -0.000153
  21 H :   -0.004361
  22 O :    0.012331
  23 H :    0.001886
  24 N :   -0.402774
  25 H :    0.129075
  26 H :    0.241431
  27 H :    0.021263
Sum of atomic charges:    0.0000000

LOEWDIN ATOMIC CHARGES
----------------------
   0 H :   -0.002101
   1 O :   -0.002463
   2 H :   -0.000698
   3 H :   -0.000334
   4 O :   -0.003050
   5 H :   -0.000336
   6 H :   -0.007625
   7 O :   -0.013521
   8 H :   -0.026392
   9 H :   -0.011380
  10 O :   -0.028467
  11 H :   -0.001894
  12 H :   -0.000459
  13 O :   -0.001316
  14 H :   -0.001204
  15 H :   -0.002638
  16 O :   -0.000579
  17 H :   -0.000153
  18 H :   -0.000526
  19 O :   -0.000070
  20 H :   -0.000119
  21 H :   -0.239935
  22 O :   -0.038350
  23 H :   -0.010351
  24 N :    1.260670
  25 H :   -0.287587
  26 H :   -0.288720
  27 H :   -0.290402

  Mayer bond orders larger than 0.100000
B( 24-N , 25-H ) :   1.0309 B( 24-N , 26-H ) :   0.9203 B( 24-N , 27-H ) :   1.1440

E(0)                                       ...    -56.220008382
E(CORR)(strong-pairs)                      ...     -0.252975735
E(CORR)(weak-pairs)                        ...     -0.000061344
E(CORR)(corrected)                         ...     -0.253037079
E(TOT)                                     ...    -56.473045461
E(CCSD(T))                                 ...    -56.481223977
FINAL SINGLE POINT ENERGY       -56.481223977044

DIPOLE MOMENT
-------------
                                X             Y             Z
Electronic contribution:     -0.19462      -0.01154      -0.15254
Nuclear contribution   :      0.68115       0.04578       0.55373
                        -----------------------------------------
Total Dipole Moment    :      0.48653       0.03424       0.40119
                        -----------------------------------------
Magnitude (a.u.)       :      0.63154
Magnitude (Debye)      :      1.60524

Rotational constants in cm-1:     9.942965     9.822735     6.257636
Rotational constants in MHz : 298082.598554 294478.182283 187599.221003

                             ****ORCA TERMINATED NORMALLY****
TOTAL RUN TIME: 0 days 3 hours 13 minutes 23 seconds 776 msec
