                         Program Version 5.0.1 -  RELEASE  -
|  1> !QM/XTB2 DLPNO-CCSD(T) aug-cc-pVTZ aug-cc-pVTZ/C TightPNO
|  2> %maxcore 2000
|  3> %pal
|  4> nprocs 24
|  5> end
|  6> %qmmm
|  7> QMAtoms {141 142 143 174 175 176 228 229 230 252 253 254 258 259 260 276 277 278 462 463 464 } end
|  8> ActiveAtoms {141 142 143 174 175 176 228 229 230 252 253 254 258 259 260 276 277 278 462 463 464 } end
|  9> end
| 10> *xyzfile 0 1 cluster_opt.xyz
| 11>
| 12>
| 13>                          ****END OF INPUT****
FINAL SINGLE POINT ENERGY (L-QM2)    -1018.332237866330
FINAL SINGLE POINT ENERGY (S-QM2)      -35.641890965460

CARTESIAN COORDINATES (ANGSTROEM)
---------------------------------
  H      1.947214   -3.646625    4.172209
  O      1.766197   -4.114783    5.016529
  H      2.332866   -3.662623    5.660237
  H      4.437828   -2.691187    5.545538
  O      4.346822   -3.277810    6.319944
  H      4.543230   -4.186868    5.973356
  H      4.962567   -2.151677    3.550699
  O      4.955030   -1.477730    4.264919
  H      4.152850   -0.919906    4.085009
  H      2.024858   -0.765627    5.313615
  O      1.530633   -1.344794    5.918602
  H      1.456604   -0.899065    6.785432
  H      5.667468   -5.558704    4.612054
  O      5.113908   -5.679950    5.413061
  H      4.327598   -6.167277    5.118398
  H      4.280390   -0.594934    6.970979
  O      4.435984    0.296308    7.298444
  H      5.101197    0.690504    6.709052
  H      7.471455   -2.325079    6.607924
  O      7.283123   -3.040029    5.995792
  H      6.349551   -3.263200    6.164592

 Total Charge           Charge          ....    0
 Multiplicity           Mult            ....    1
 Number of Electrons    NEL             ....   70
 Basis Dimension        Dim             ....  644

ORBITAL ENERGIES
----------------

  NO   OCC          E(Eh)            E(eV)
   0   2.0000     -20.627912      -561.3140
   1   2.0000     -20.603344      -560.6455
   2   2.0000     -20.595956      -560.4445
   3   2.0000     -20.590531      -560.2968
   4   2.0000     -20.586466      -560.1862
   5   2.0000     -20.585961      -560.1725
   6   2.0000     -20.561415      -559.5045
   7   2.0000      -1.403546       -38.1924
   8   2.0000      -1.382920       -37.6312
   9   2.0000      -1.375938       -37.4412
  10   2.0000      -1.372589       -37.3501
  11   2.0000      -1.370960       -37.3057
  12   2.0000      -1.368370       -37.2353
  13   2.0000      -1.342718       -36.5372
  14   2.0000      -0.760581       -20.6965
  15   2.0000      -0.749292       -20.3893
  16   2.0000      -0.739489       -20.1225
  17   2.0000      -0.738541       -20.0967
  18   2.0000      -0.734316       -19.9817
  19   2.0000      -0.729912       -19.8619
  20   2.0000      -0.724683       -19.7196
  21   2.0000      -0.646348       -17.5880
  22   2.0000      -0.630277       -17.1507
  23   2.0000      -0.622535       -16.9400
  24   2.0000      -0.617074       -16.7914
  25   2.0000      -0.611067       -16.6280
  26   2.0000      -0.608906       -16.5692
  27   2.0000      -0.591015       -16.0823
  28   2.0000      -0.561472       -15.2784
  29   2.0000      -0.553975       -15.0744
  30   2.0000      -0.544572       -14.8186
  31   2.0000      -0.535375       -14.5683
  32   2.0000      -0.533359       -14.5134
  33   2.0000      -0.521434       -14.1890
  34   2.0000      -0.507665       -13.8143
  35   0.0000      -0.001182        -0.0322
  36   0.0000       0.024393         0.6638
  37   0.0000       0.029370         0.7992
  38   0.0000       0.032618         0.8876
  39   0.0000       0.042769         1.1638

MULLIKEN ATOMIC CHARGES
-----------------------
   0 H :    0.235433
   1 O :   -0.647217
   2 H :    0.449588
   3 H :    0.431361
   4 O :   -0.848304
   5 H :    0.350528
   6 H :    0.217487
   7 O :   -0.472126
   8 H :    0.238976
   9 H :    0.324855
  10 O :   -0.597611
  11 H :    0.254822
  12 H :    0.223455
  13 O :   -0.383984
  14 H :    0.215354
  15 H :    0.360000
  16 O :   -0.597382
  17 H :    0.239586
  18 H :    0.177032
  19 O :   -0.574832
  20 H :    0.402978
Sum of atomic charges:   -0.0000000

LOEWDIN ATOMIC CHARGES
----------------------
   0 H :   -0.476820
   1 O :    0.991390
   2 H :   -0.640156
   3 H :   -0.672479
   4 O :    1.098205
   5 H :   -0.692531
   6 H :   -0.424524
   7 O :    1.036534
   8 H :   -0.413965
   9 H :   -0.496289
  10 O :    1.004265
  11 H :   -0.458061
  12 H :   -0.400850
  13 O :    1.102961
  14 H :   -0.422916
  15 H :   -0.552762
  16 O :    1.015755
  17 H :   -0.479081
  18 H :   -0.499810
  19 O :    1.023870
  20 H :   -0.642738

  Mayer bond orders larger than 0.100000
B(  0-H ,  1-O ) :   1.0163 B(  1-O ,  2-H ) :   0.7318 B(  3-H ,  4-O ) :   0.5512
B(  4-O ,  5-H ) :   0.9622 B(  6-H ,  7-O ) :   1.0298 B(  7-O ,  8-H ) :   1.0089
B(  9-H , 10-O ) :   0.8748 B( 10-O , 11-H ) :   0.9879 B( 12-H , 13-O ) :   0.9974
B( 13-O , 14-H ) :   1.0124 B( 15-H , 16-O ) :   0.7910 B( 16-O , 17-H ) :   1.0346
B( 18-H , 19-O ) :   1.1068 B( 19-O , 20-H ) :   0.7610

E(0)                                       ...   -532.604796821
E(0)                                       ...   -532.604796821
E(CORR)(strong-pairs)                      ...     -1.933319827
E(CORR)(weak-pairs)                        ...     -0.001298510
E(CORR)(corrected)                         ...     -1.934618337
E(TOT)                                     ...   -534.539415159
E(CCSD(T))                                 ...   -534.601008129
FINAL SINGLE POINT ENERGY      -534.601008129255
FINAL SINGLE POINT ENERGY (QM/QM2)    -1517.291355030125

DIPOLE MOMENT
-------------
                                X             Y             Z
Electronic contribution:      0.10573      -0.30675       0.45878
Nuclear contribution   :      0.16005       0.94499      -2.65148
                        -----------------------------------------
Total Dipole Moment    :      0.26578       0.63824      -2.19270
                        -----------------------------------------
Magnitude (a.u.)       :      2.29911
Magnitude (Debye)      :      5.84387

Rotational constants in cm-1:     0.034974     0.029953     0.019201
Rotational constants in MHz :  1048.498931   897.966871   575.640701

                             ****ORCA TERMINATED NORMALLY****
TOTAL RUN TIME: 0 days 0 hours 16 minutes 39 seconds 256 msec
