                         Program Version 5.0.1 -  RELEASE  -
|  1> #------------------------------------------------------
|  2> # After the Orca calculation you will get two inter-
|  3> # action energies at the end of the output file. The
|  4> # difference is the negative BSSE.
|  5> #
|  6> # The script will set the orbital guess PModel for
|  7> # jobs 2-5 since Orca will try to use the .gbw-files of
|  8> # the earlier calculations which does not work for jobs
|  9> # 2 and 3 and does not help for jobs 4 and 5.
| 10> #------------------------------------------------------
| 11> #
| 12> #-------------------------
| 13> #     First the dimer
| 14> #-------------------------
| 15>
| 16> %id "dimer"
| 17> ! DLPNO-CCSD(T) aug-cc-pVTZ aug-cc-pVTZ/C TightPNO
| 18> %maxcore 2000
| 19> %pal
| 20> nprocs 24
| 21> end
| 22>
| 23> * xyz 0 1
| 24> H     1.949787    -3.682083     4.133091
| 25> O     1.777261    -4.137274     4.986214
| 26> H     2.353667    -3.666162     5.611390
| 27> H     4.385483    -2.524424     5.618700
| 28> O     4.112587    -3.186434     6.295074
| 29> H     4.491239    -4.035007     5.958003
| 30> H     4.965008    -2.151161     3.559849
| 31> O     4.967531    -1.486181     4.280155
| 32> H     4.170765    -0.913959     4.117225
| 33> H     2.044189    -0.824010     5.279337
| 34> O     1.497809    -1.375590     5.866505
| 35> H     1.497512    -0.951838     6.742220
| 36> H     5.715844    -5.452747     4.594842
| 37> O     5.184847    -5.512574     5.423870
| 38> H     4.406015    -6.041099     5.184590
| 39> H     4.655797    -0.352761     7.575577
| 40> O     4.244265     0.295077     6.982695
| 41> H     4.993621     0.760250     6.572560
| 42> H     7.070080    -2.549325     6.704825
| 43> O     7.337563    -3.151538     5.995593
| 44> H     6.666500    -3.842216     6.014070
| 45> O     5.605254    -1.946656     8.091996
| 46> H     4.972111    -2.506624     7.564340
| 47> H     5.548538    -2.263240     8.997549
| 48> *
| 49>
| 50> #--------------------------
| 51> #   Now the fragments at
| 52> #      dimer-geometry
| 53> #-------------------------
| 54>
| 55> $new_job
| 56> %id "fragment"
| 57> %scf guess PModel end
| 58> ! DLPNO-CCSD(T) aug-cc-pVTZ aug-cc-pVTZ/C TightPNO
| 59> %maxcore 2000
| 60> %pal
| 61> nprocs 24
| 62> end
| 63>
| 64> * xyz 0 1
| 65> H     1.949787    -3.682083     4.133091
| 66> O     1.777261    -4.137274     4.986214
| 67> H     2.353667    -3.666162     5.611390
| 68> H     4.385483    -2.524424     5.618700
| 69> O     4.112587    -3.186434     6.295074
| 70> H     4.491239    -4.035007     5.958003
| 71> H     4.965008    -2.151161     3.559849
| 72> O     4.967531    -1.486181     4.280155
| 73> H     4.170765    -0.913959     4.117225
| 74> H     2.044189    -0.824010     5.279337
| 75> O     1.497809    -1.375590     5.866505
| 76> H     1.497512    -0.951838     6.742220
| 77> H     5.715844    -5.452747     4.594842
| 78> O     5.184847    -5.512574     5.423870
| 79> H     4.406015    -6.041099     5.184590
| 80> H     4.655797    -0.352761     7.575577
| 81> O     4.244265     0.295077     6.982695
| 82> H     4.993621     0.760250     6.572560
| 83> H     7.070080    -2.549325     6.704825
| 84> O     7.337563    -3.151538     5.995593
| 85> H     6.666500    -3.842216     6.014070
| 86> *
| 87>
| 88> $new_job
| 89> %id "fragment"
| 90> %scf guess PModel end
| 91> ! DLPNO-CCSD(T) aug-cc-pVTZ aug-cc-pVTZ/C TightPNO
| 92> %maxcore 2000
| 93> %pal
| 94> nprocs 6
| 95> end
| 96>
| 97> * xyz 0 1
| 98> O     5.605254    -1.946656     8.091996
| 99> H     4.972111    -2.506624     7.564340
|100> H     5.548538    -2.263240     8.997549
|101> *
|102>
|103> #--------------------------
|104> #   Now the fragments at
|105> #   dimer-geometry with
|106> #     the dimer-basis
|107> #-------------------------
|108>
|109> $new_job
|110> %id "ghost"
|111> %scf guess PModel end
|112> ! DLPNO-CCSD(T) aug-cc-pVTZ aug-cc-pVTZ/C TightPNO
|113> %maxcore 2000
|114> %pal
|115> nprocs 24
|116> end
|117>
|118> * xyz 0 1
|119> H          1.949787    -3.682083     4.133091
|120> O          1.777261    -4.137274     4.986214
|121> H          2.353667    -3.666162     5.611390
|122> H          4.385483    -2.524424     5.618700
|123> O          4.112587    -3.186434     6.295074
|124> H          4.491239    -4.035007     5.958003
|125> H          4.965008    -2.151161     3.559849
|126> O          4.967531    -1.486181     4.280155
|127> H          4.170765    -0.913959     4.117225
|128> H          2.044189    -0.824010     5.279337
|129> O          1.497809    -1.375590     5.866505
|130> H          1.497512    -0.951838     6.742220
|131> H          5.715844    -5.452747     4.594842
|132> O          5.184847    -5.512574     5.423870
|133> H          4.406015    -6.041099     5.184590
|134> H          4.655797    -0.352761     7.575577
|135> O          4.244265     0.295077     6.982695
|136> H          4.993621     0.760250     6.572560
|137> H          7.070080    -2.549325     6.704825
|138> O          7.337563    -3.151538     5.995593
|139> H          6.666500    -3.842216     6.014070
|140> O :        5.605254    -1.946656     8.091996
|141> H :        4.972111    -2.506624     7.564340
|142> H :        5.548538    -2.263240     8.997549
|143> *
|144>
|145> $new_job
|146> %id "ghost"
|147> %scf guess PModel end
|148> ! DLPNO-CCSD(T) aug-cc-pVTZ aug-cc-pVTZ/C TightPNO
|149> %maxcore 2000
|150> %pal
|151> nprocs 6
|152> end
|153>
|154> * xyz 0 1
|155> H :        1.949787    -3.682083     4.133091
|156> O :        1.777261    -4.137274     4.986214
|157> H :        2.353667    -3.666162     5.611390
|158> H :        4.385483    -2.524424     5.618700
|159> O :        4.112587    -3.186434     6.295074
|160> H :        4.491239    -4.035007     5.958003
|161> H :        4.965008    -2.151161     3.559849
|162> O :        4.967531    -1.486181     4.280155
|163> H :        4.170765    -0.913959     4.117225
|164> H :        2.044189    -0.824010     5.279337
|165> O :        1.497809    -1.375590     5.866505
|166> H :        1.497512    -0.951838     6.742220
|167> H :        5.715844    -5.452747     4.594842
|168> O :        5.184847    -5.512574     5.423870
|169> H :        4.406015    -6.041099     5.184590
|170> H :        4.655797    -0.352761     7.575577
|171> O :        4.244265     0.295077     6.982695
|172> H :        4.993621     0.760250     6.572560
|173> H :        7.070080    -2.549325     6.704825
|174> O :        7.337563    -3.151538     5.995593
|175> H :        6.666500    -3.842216     6.014070
|176> O          5.605254    -1.946656     8.091996
|177> H          4.972111    -2.506624     7.564340
|178> H          5.548538    -2.263240     8.997549
|179> *
|180>
|181>
|182>                          ****END OF INPUT****
 Total Charge           Charge          ....    0
 Multiplicity           Mult            ....    1
 Number of Electrons    NEL             ....   80
E(0)                                       ...   -608.488773545
E(0)                                       ...   -608.488773545
E(CORR)(strong-pairs)                      ...     -2.221881045
E(CORR)(weak-pairs)                        ...     -0.001896219
E(CORR)(corrected)                         ...     -2.223777265
E(TOT)                                     ...   -610.712550809
FINAL SINGLE POINT ENERGY      -610.784945563866
FINAL SINGLE POINT ENERGY      -534.417618345998
FINAL SINGLE POINT ENERGY       -76.340914968115
FINAL SINGLE POINT ENERGY      -534.418877928164

CARTESIAN COORDINATES (ANGSTROEM)
---------------------------------
  H      1.949787   -3.682083    4.133091
  O      1.777261   -4.137274    4.986214
  H      2.353667   -3.666162    5.611390
  H      4.385483   -2.524424    5.618700
  O      4.112587   -3.186434    6.295074
  H      4.491239   -4.035007    5.958003
  H      4.965008   -2.151161    3.559849
  O      4.967531   -1.486181    4.280155
  H      4.170765   -0.913959    4.117225
  H      2.044189   -0.824010    5.279337
  O      1.497809   -1.375590    5.866505
  H      1.497512   -0.951838    6.742220
  H      5.715844   -5.452747    4.594842
  O      5.184847   -5.512574    5.423870
  H      4.406015   -6.041099    5.184590
  H      4.655797   -0.352761    7.575577
  O      4.244265    0.295077    6.982695
  H      4.993621    0.760250    6.572560
  H      7.070080   -2.549325    6.704825
  O      7.337563   -3.151538    5.995593
  H      6.666500   -3.842216    6.014070
  O      5.605254   -1.946656    8.091996
  H      4.972111   -2.506624    7.564340
  H      5.548538   -2.263240    8.997549

 Multiplicity           Mult            ....    1
 Number of Electrons    NEL             ....   10
 Basis Dimension        Dim             ....  736

ORBITAL ENERGIES
----------------

  NO   OCC          E(Eh)            E(eV)
   0   2.0000     -20.569797      -559.7326
   1   2.0000      -1.341823       -36.5129
   2   2.0000      -0.708970       -19.2921
   3   2.0000      -0.577600       -15.7173
   4   2.0000      -0.508106       -13.8263
   5   0.0000       0.014812         0.4030
   6   0.0000       0.031790         0.8650
   7   0.0000       0.033502         0.9116
   8   0.0000       0.037812         1.0289
   9   0.0000       0.052287         1.4228

MULLIKEN ATOMIC CHARGES
-----------------------
   0 H :    0.000056
   1 O :    0.000180
   2 H :    0.000259
   3 H :   -0.000885
   4 O :    0.047848
   5 H :    0.003900
   6 H :    0.000178
   7 O :    0.000532
   8 H :   -0.000512
   9 H :    0.000415
  10 O :   -0.001248
  11 H :   -0.000405
  12 H :   -0.000125
  13 O :    0.000253
  14 H :    0.000146
  15 H :    0.015258
  16 O :    0.005724
  17 H :   -0.006948
  18 H :    0.022910
  19 O :   -0.004224
  20 H :   -0.010684
  21 O :   -0.495139
  22 H :    0.324520
  23 H :    0.097991
Sum of atomic charges:   -0.0000000

LOEWDIN ATOMIC CHARGES
----------------------
   0 H :   -0.000048
   1 O :   -0.000075
   2 H :   -0.000564
   3 H :   -0.026582
   4 O :   -0.081051
   5 H :   -0.012489
   6 H :   -0.000222
   7 O :   -0.001856
   8 H :   -0.000330
   9 H :   -0.000241
  10 O :   -0.000336
  11 H :   -0.000361
  12 H :   -0.000168
  13 O :   -0.000646
  14 H :   -0.000107
  15 H :   -0.165117
  16 O :   -0.021458
  17 H :   -0.006927
  18 H :   -0.109778
  19 O :   -0.015591
  20 H :   -0.010881
  21 O :    1.235077
  22 H :   -0.346752
  23 H :   -0.433496

  Mayer bond orders larger than 0.100000
B( 21-O , 22-H ) :   0.8552 B( 21-O , 23-H ) :   1.1271

E(0)                                       ...    -76.057980561
E(CORR)(strong-pairs)                      ...     -0.275568616
E(CORR)(weak-pairs)                        ...     -0.000050510
E(CORR)(corrected)                         ...     -0.275619125
E(TOT)                                     ...    -76.333599686
E(CCSD(T))                                 ...    -76.342150003
FINAL SINGLE POINT ENERGY       -76.342150003339

DIPOLE MOMENT
-------------
                                X             Y             Z
Electronic contribution:      0.12169       0.15266      -0.06019
Nuclear contribution   :     -0.57421      -0.72961       0.31455
                        -----------------------------------------
Total Dipole Moment    :     -0.45253      -0.57694       0.25436
                        -----------------------------------------
Magnitude (a.u.)       :      0.77611
Magnitude (Debye)      :      1.97270

Rotational constants in cm-1:    27.230416    13.657118     9.095413
Rotational constants in MHz : 816347.320077 409430.091708 272673.615055

                             ****ORCA TERMINATED NORMALLY****
TOTAL RUN TIME: 0 days 3 hours 41 minutes 54 seconds 411 msec
