                         Program Version 5.0.1 -  RELEASE  -
|  1> !QM/XTB2 DLPNO-CCSD(T) aug-cc-pVTZ aug-cc-pVTZ/C TightPNO
|  2> %maxcore 2000
|  3> %pal
|  4> nprocs 24
|  5> end
|  6> %qmmm
|  7> QMAtoms {141 142 143 174 175 176 228 229 230 252 253 254 258 259 260 276 277 278 462 463 464 600 601 602 } end
|  8> ActiveAtoms {141 142 143 174 175 176 228 229 230 252 253 254 258 259 260 276 277 278 462 463 464 600 601 602 } end
|  9> end
| 10> *xyzfile 0 1 grain_mol_opt.xyz
| 11>
| 12>
| 13>                          ****END OF INPUT****
FINAL SINGLE POINT ENERGY (L-QM2)    -1023.434464265900
FINAL SINGLE POINT ENERGY (S-QM2)      -40.740824970730

CARTESIAN COORDINATES (ANGSTROEM)
---------------------------------
  H      1.949787   -3.682083    4.133091
  O      1.777261   -4.137274    4.986214
  H      2.353667   -3.666162    5.611390
  H      4.385483   -2.524424    5.618700
  O      4.112587   -3.186434    6.295074
  H      4.491239   -4.035007    5.958003
  H      4.965008   -2.151161    3.559849
  O      4.967531   -1.486181    4.280155
  H      4.170765   -0.913959    4.117225
  H      2.044189   -0.824010    5.279337
  O      1.497809   -1.375590    5.866505
  H      1.497512   -0.951838    6.742220
  H      5.715844   -5.452747    4.594842
  O      5.184847   -5.512574    5.423870
  H      4.406015   -6.041099    5.184590
  H      4.655797   -0.352761    7.575577
  O      4.244265    0.295077    6.982695
  H      4.993621    0.760250    6.572560
  H      7.070080   -2.549325    6.704825
  O      7.337563   -3.151538    5.995593
  H      6.666500   -3.842216    6.014070
  O      5.605254   -1.946656    8.091996
  H      4.972111   -2.506624    7.564340
  H      5.548538   -2.263240    8.997549

 Total Charge           Charge          ....    0
 Multiplicity           Mult            ....    1
 Number of Electrons    NEL             ....   80
 Basis Dimension        Dim             ....  736

ORBITAL ENERGIES
----------------

  NO   OCC          E(Eh)            E(eV)
   0   2.0000     -20.618006      -561.0445
   1   2.0000     -20.603249      -560.6429
   2   2.0000     -20.584916      -560.1440
   3   2.0000     -20.584395      -560.1299
   4   2.0000     -20.583973      -560.1184
   5   2.0000     -20.577503      -559.9423
   6   2.0000     -20.575014      -559.8746
   7   2.0000     -20.568673      -559.7020
   8   2.0000      -1.396520       -38.0012
   9   2.0000      -1.387666       -37.7603
  10   2.0000      -1.374764       -37.4092
  11   2.0000      -1.369588       -37.2684
  12   2.0000      -1.365597       -37.1598
  13   2.0000      -1.362099       -37.0646
  14   2.0000      -1.353523       -36.8312
  15   2.0000      -1.347158       -36.6580
  16   2.0000      -0.755257       -20.5516
  17   2.0000      -0.750501       -20.4222
  18   2.0000      -0.748737       -20.3742
  19   2.0000      -0.733525       -19.9602
  20   2.0000      -0.729957       -19.8631
  21   2.0000      -0.726397       -19.7663
  22   2.0000      -0.724067       -19.7029
  23   2.0000      -0.715802       -19.4780
  24   2.0000      -0.653986       -17.7959
  25   2.0000      -0.629050       -17.1173
  26   2.0000      -0.623175       -16.9574
  27   2.0000      -0.616579       -16.7780
  28   2.0000      -0.613571       -16.6961
  29   2.0000      -0.606460       -16.5026
  30   2.0000      -0.600903       -16.3514
  31   2.0000      -0.584737       -15.9115
  32   2.0000      -0.555441       -15.1143
  33   2.0000      -0.543298       -14.7839
  34   2.0000      -0.540661       -14.7121
  35   2.0000      -0.533790       -14.5252
  36   2.0000      -0.529878       -14.4187
  37   2.0000      -0.524178       -14.2636
  38   2.0000      -0.517405       -14.0793
  39   2.0000      -0.512251       -13.9391
  40   0.0000       0.002301         0.0626
  41   0.0000       0.024744         0.6733
  42   0.0000       0.029746         0.8094
  43   0.0000       0.033950         0.9238
  44   0.0000       0.043160         1.1745

MULLIKEN ATOMIC CHARGES
-----------------------
   0 H :    0.227004
   1 O :   -0.700328
   2 H :    0.466005
   3 H :    0.487054
   4 O :   -0.653691
   5 H :    0.317165
   6 H :    0.199768
   7 O :   -0.472903
   8 H :    0.249490
   9 H :    0.337428
  10 O :   -0.607693
  11 H :    0.257513
  12 H :    0.226279
  13 O :   -0.373576
  14 H :    0.182820
  15 H :    0.350615
  16 O :   -0.573328
  17 H :    0.194036
  18 H :    0.307191
  19 O :   -0.652384
  20 H :    0.344649
  21 O :   -0.563272
  22 H :    0.332408
  23 H :    0.117751
Sum of atomic charges:    0.0000000

LOEWDIN ATOMIC CHARGES
----------------------
   0 H :   -0.475196
   1 O :    0.991481
   2 H :   -0.691403
   3 H :   -0.608902
   4 O :    1.162006
   5 H :   -0.644505
   6 H :   -0.426583
   7 O :    1.047681
   8 H :   -0.407317
   9 H :   -0.496084
  10 O :    1.002187
  11 H :   -0.470819
  12 H :   -0.387088
  13 O :    1.106125
  14 H :   -0.415777
  15 H :   -0.660280
  16 O :    1.013016
  17 H :   -0.474400
  18 H :   -0.587005
  19 O :    1.037667
  20 H :   -0.598496
  21 O :    1.102275
  22 H :   -0.672514
  23 H :   -0.446068

  Mayer bond orders larger than 0.100000
B(  0-H ,  1-O ) :   1.0454 B(  1-O ,  2-H ) :   0.6605 B(  3-H ,  4-O ) :   0.6711
B(  3-H ,  5-H ) :   0.1058 B(  4-O ,  5-H ) :   0.9755 B(  4-O , 22-H ) :   0.1657
B(  6-H ,  7-O ) :   1.0393 B(  7-O ,  8-H ) :   1.0072 B(  9-H , 10-O ) :   0.8625
B( 10-O , 11-H ) :   0.9810 B( 12-H , 13-O ) :   0.9955 B( 13-O , 14-H ) :   1.0243
B( 15-H , 16-O ) :   0.8285 B( 16-O , 17-H ) :   1.0586 B( 18-H , 19-O ) :   0.9482
B( 19-O , 20-H ) :   0.8594 B( 21-O , 22-H ) :   0.6889 B( 21-O , 23-H ) :   1.1310

E(0)                                       ...   -608.680766456
E(0)                                       ...   -608.680766456
E(CORR)(strong-pairs)                      ...     -2.215590294
E(CORR)(weak-pairs)                        ...     -0.001880592
E(CORR)(corrected)                         ...     -2.217470885
E(TOT)                                     ...   -610.898237341
E(CCSD(T))                                 ...   -610.969661384
FINAL SINGLE POINT ENERGY      -610.969661383764
FINAL SINGLE POINT ENERGY (QM/QM2)    -1593.663300678934

DIPOLE MOMENT
-------------
                                X             Y             Z
Electronic contribution:      0.14199      -0.23297       0.12472
Nuclear contribution   :      0.35951       0.00494      -1.34512
                        -----------------------------------------
Total Dipole Moment    :      0.50151      -0.22803      -1.22040
                        -----------------------------------------
Magnitude (a.u.)       :      1.33899
Magnitude (Debye)      :      3.40343

Rotational constants in cm-1:     0.029064     0.026957     0.017976
Rotational constants in MHz :   871.327041   808.137456   538.892171

                             ****ORCA TERMINATED NORMALLY****
TOTAL RUN TIME: 0 days 0 hours 31 minutes 17 seconds 920 msec
