                         Program Version 5.0.1 -  RELEASE  -
|  1> ! DLPNO-CCSD(T) aug-cc-pVTZ aug-cc-pVTZ/C TightPNO
|  2> %maxcore 2000
|  3> %pal
|  4> nprocs 6
|  5> end
|  6> *xyzfile 0 1 mol_inp.xyz
|  7>
|  8>
|  9>                          ****END OF INPUT****

CARTESIAN COORDINATES (ANGSTROEM)
---------------------------------
  O      5.605254   -1.946656    8.091996
  H      4.972111   -2.506624    7.564340
  H      5.548538   -2.263240    8.997549

 Total Charge           Charge          ....    0
 Multiplicity           Mult            ....    1
 Number of Electrons    NEL             ....   10
 Basis Dimension        Dim             ....   92

ORBITAL ENERGIES
----------------

  NO   OCC          E(Eh)            E(eV)
   0   2.0000     -20.569997      -559.7381
   1   2.0000      -1.341971       -36.5169
   2   2.0000      -0.709109       -19.2958
   3   2.0000      -0.577717       -15.7205
   4   2.0000      -0.508131       -13.8269
   5   0.0000       0.029245         0.7958
   6   0.0000       0.047504         1.2927
   7   0.0000       0.136048         3.7020
   8   0.0000       0.159317         4.3352
   9   0.0000       0.173923         4.7327

MULLIKEN ATOMIC CHARGES
-----------------------
   0 O :   -0.469651
   1 H :    0.248605
   2 H :    0.221046
Sum of atomic charges:    0.0000000

LOEWDIN ATOMIC CHARGES
----------------------
   0 O :    0.983806
   1 H :   -0.454933
   2 H :   -0.528873

  Mayer bond orders larger than 0.100000
B(  0-O ,  1-H ) :   0.9768 B(  0-O ,  2-H ) :   0.9986

E(0)                                       ...    -76.057777860
E(0)                                       ...    -76.057777860
E(CORR)(strong-pairs)                      ...     -0.274615666
E(CORR)(weak-pairs)                        ...     -0.000033762
E(CORR)(corrected)                         ...     -0.274649428
E(TOT)                                     ...    -76.332427288
E(CCSD(T))                                 ...    -76.340914968
FINAL SINGLE POINT ENERGY       -76.340914968115

DIPOLE MOMENT
-------------
                                X             Y             Z
Electronic contribution:      0.12120       0.15217      -0.05984
Nuclear contribution   :     -0.57421      -0.72961       0.31455
                        -----------------------------------------
Total Dipole Moment    :     -0.45301      -0.57744       0.25470
                        -----------------------------------------
Magnitude (a.u.)       :      0.77687
Magnitude (Debye)      :      1.97465

Rotational constants in cm-1:    27.230416    13.657118     9.095413
Rotational constants in MHz : 816347.320077 409430.091708 272673.615055

                             ****ORCA TERMINATED NORMALLY****
TOTAL RUN TIME: 0 days 0 hours 0 minutes 40 seconds 477 msec
