                         Program Version 5.0.1 -  RELEASE  -
|  1> !QM/XTB2 DLPNO-CCSD(T) aug-cc-pVTZ aug-cc-pVTZ/C TightPNO
|  2> %maxcore 2000
|  3> %pal
|  4> nprocs 24
|  5> end
|  6> %qmmm
|  7> QMAtoms {141 142 143 174 175 176 228 229 230 252 253 254 258 259 260 276 277 278 462 463 464 } end
|  8> ActiveAtoms {141 142 143 174 175 176 228 229 230 252 253 254 258 259 260 276 277 278 462 463 464 } end
|  9> end
| 10> *xyzfile 0 1 surf_inp.xyz
| 11>
| 12>
| 13>                          ****END OF INPUT****
FINAL SINGLE POINT ENERGY (L-QM2)    -1018.332859282850
FINAL SINGLE POINT ENERGY (S-QM2)      -35.645013747680

CARTESIAN COORDINATES (ANGSTROEM)
---------------------------------
  H      1.949787   -3.682083    4.133091
  O      1.777261   -4.137274    4.986214
  H      2.353667   -3.666162    5.611390
  H      4.385483   -2.524424    5.618700
  O      4.112587   -3.186434    6.295074
  H      4.491239   -4.035007    5.958003
  H      4.965008   -2.151161    3.559849
  O      4.967531   -1.486181    4.280155
  H      4.170765   -0.913959    4.117225
  H      2.044189   -0.824010    5.279337
  O      1.497809   -1.375590    5.866505
  H      1.497512   -0.951838    6.742220
  H      5.715844   -5.452747    4.594842
  O      5.184847   -5.512574    5.423870
  H      4.406015   -6.041099    5.184590
  H      4.655797   -0.352761    7.575577
  O      4.244265    0.295077    6.982695
  H      4.993621    0.760250    6.572560
  H      7.070080   -2.549325    6.704825
  O      7.337563   -3.151538    5.995593
  H      6.666500   -3.842216    6.014070

 Total Charge           Charge          ....    0
 Multiplicity           Mult            ....    1
 Number of Electrons    NEL             ....   70
 Basis Dimension        Dim             ....  644

ORBITAL ENERGIES
----------------

  NO   OCC          E(Eh)            E(eV)
   0   2.0000     -20.615501      -560.9763
   1   2.0000     -20.600848      -560.5776
   2   2.0000     -20.599010      -560.5275
   3   2.0000     -20.594242      -560.3978
   4   2.0000     -20.581984      -560.0643
   5   2.0000     -20.574039      -559.8481
   6   2.0000     -20.543604      -559.0199
   7   2.0000      -1.391685       -37.8697
   8   2.0000      -1.384627       -37.6776
   9   2.0000      -1.378114       -37.5004
  10   2.0000      -1.376084       -37.4451
  11   2.0000      -1.362967       -37.0882
  12   2.0000      -1.354357       -36.8539
  13   2.0000      -1.324640       -36.0453
  14   2.0000      -0.751874       -20.4595
  15   2.0000      -0.748503       -20.3678
  16   2.0000      -0.739882       -20.1332
  17   2.0000      -0.731804       -19.9134
  18   2.0000      -0.727312       -19.7912
  19   2.0000      -0.716281       -19.4910
  20   2.0000      -0.709110       -19.2959
  21   2.0000      -0.640091       -17.4178
  22   2.0000      -0.627846       -17.0845
  23   2.0000      -0.623810       -16.9747
  24   2.0000      -0.615097       -16.7377
  25   2.0000      -0.610349       -16.6084
  26   2.0000      -0.595649       -16.2084
  27   2.0000      -0.590993       -16.0817
  28   2.0000      -0.547987       -14.9115
  29   2.0000      -0.546335       -14.8665
  30   2.0000      -0.543401       -14.7867
  31   2.0000      -0.534514       -14.5449
  32   2.0000      -0.526370       -14.3233
  33   2.0000      -0.519906       -14.1474
  34   2.0000      -0.488331       -13.2882
  35   0.0000       0.004570         0.1244
  36   0.0000       0.022427         0.6103
  37   0.0000       0.032012         0.8711
  38   0.0000       0.034841         0.9481
  39   0.0000       0.044848         1.2204

MULLIKEN ATOMIC CHARGES
-----------------------
   0 H :    0.223856
   1 O :   -0.667077
   2 H :    0.477574
   3 H :    0.502054
   4 O :   -0.866063
   5 H :    0.334336
   6 H :    0.193790
   7 O :   -0.465589
   8 H :    0.250688
   9 H :    0.333089
  10 O :   -0.597103
  11 H :    0.255299
  12 H :    0.231771
  13 O :   -0.387031
  14 H :    0.188652
  15 H :    0.243605
  16 O :   -0.502496
  17 H :    0.239194
  18 H :    0.210273
  19 O :   -0.569124
  20 H :    0.370300
Sum of atomic charges:    0.0000000

LOEWDIN ATOMIC CHARGES
----------------------
   0 H :   -0.477990
   1 O :    0.987750
   2 H :   -0.697433
   3 H :   -0.676561
   4 O :    1.081792
   5 H :   -0.706375
   6 H :   -0.427603
   7 O :    1.038647
   8 H :   -0.410032
   9 H :   -0.497089
  10 O :    1.001483
  11 H :   -0.471192
  12 H :   -0.390604
  13 O :    1.100577
  14 H :   -0.416678
  15 H :   -0.492663
  16 O :    0.996661
  17 H :   -0.481532
  18 H :   -0.482734
  19 O :    1.022364
  20 H :   -0.600789

  Mayer bond orders larger than 0.100000
B(  0-H ,  1-O ) :   1.0373 B(  1-O ,  2-H ) :   0.6956 B(  3-H ,  4-O ) :   0.6191
B(  4-O ,  5-H ) :   0.9150 B(  6-H ,  7-O ) :   1.0415 B(  7-O ,  8-H ) :   0.9946
B(  9-H , 10-O ) :   0.8635 B( 10-O , 11-H ) :   0.9880 B( 12-H , 13-O ) :   0.9967
B( 13-O , 14-H ) :   1.0204 B( 15-H , 16-O ) :   0.9883 B( 16-O , 17-H ) :   1.0182
B( 18-H , 19-O ) :   1.0427 B( 19-O , 20-H ) :   0.8476

E(0)                                       ...   -532.603581128
E(0)                                       ...   -532.603581128
E(CORR)(strong-pairs)                      ...     -1.933423588
E(CORR)(weak-pairs)                        ...     -0.001302346
E(CORR)(corrected)                         ...     -1.934725934
E(TOT)                                     ...   -534.538307062
E(CCSD(T))                                 ...   -534.599825523
FINAL SINGLE POINT ENERGY      -534.599825523384
FINAL SINGLE POINT ENERGY (QM/QM2)    -1517.287671058554

DIPOLE MOMENT
-------------
                                X             Y             Z
Electronic contribution:      0.15245      -0.14017       0.28216
Nuclear contribution   :      0.93373       0.73455      -1.65967
                        -----------------------------------------
Total Dipole Moment    :      1.08618       0.59438      -1.37751
                        -----------------------------------------
Magnitude (a.u.)       :      1.85219
Magnitude (Debye)      :      4.70789

Rotational constants in cm-1:     0.037182     0.030028     0.019548
Rotational constants in MHz :  1114.699146   900.218288   586.044078

                             ****ORCA TERMINATED NORMALLY****
TOTAL RUN TIME: 0 days 0 hours 17 minutes 2 seconds 157 msec
