                         Program Version 4.2.1 -  RELEASE  -
|  1> ! DLPNO-CCSD(T) aug-cc-pVTZ aug-cc-pVTZ/C TightPNO
|  2> %maxcore 2000
|  3> %pal
|  4> nprocs 10
|  5> end
|  6> # Title
|  7> *xyz 0 1
|  8> H     1.572529    -6.622418    -3.188107
|  9> O     1.361848    -6.841755    -4.125554
| 10> H     2.242524    -6.958400    -4.523981
| 11> H     2.614797    -5.782340    -1.531590
| 12> O     1.804052    -6.330909    -1.465409
| 13> H     1.059591    -5.667907    -1.370477
| 14> H    -0.291971    -7.657638    -3.339038
| 15> O    -1.020126    -7.725450    -2.701096
| 16> H    -0.644829    -8.116996    -1.899317
| 17> H     0.508747    -8.189942     0.584227
| 18> O    -0.403824    -8.406992     0.307107
| 19> H    -0.870653    -8.435209     1.174544
| 20> H     2.966184    -7.594562     1.008128
| 21> O     2.070666    -7.233873     0.985858
| 22> H     2.003148    -6.882716     0.052299
| 23> H     4.103329    -7.980646    -1.178268
| 24> O     4.608380    -7.517131    -0.483256
| 25> H     5.058626    -6.826256    -1.006553
| 26> H    -1.365729    -6.944841     0.056575
| 27> O    -1.968956    -6.179535    -0.085626
| 28> H    -2.559009    -6.471420    -0.795637
| 29> H     2.533947    -8.845812    -2.814647
| 30> O     3.497068    -8.925161    -2.804387
| 31> H     3.756768    -8.340672    -3.538052
| 32> *
| 33>
| 34>
| 35>                          ****END OF INPUT****

CARTESIAN COORDINATES (ANGSTROEM)
---------------------------------
  H      1.572529   -6.622418   -3.188107
  O      1.361848   -6.841755   -4.125554
  H      2.242524   -6.958400   -4.523981
  H      2.614797   -5.782340   -1.531590
  O      1.804052   -6.330909   -1.465409
  H      1.059591   -5.667907   -1.370477
  H     -0.291971   -7.657638   -3.339038
  O     -1.020126   -7.725450   -2.701096
  H     -0.644829   -8.116996   -1.899317
  H      0.508747   -8.189942    0.584227
  O     -0.403824   -8.406992    0.307107
  H     -0.870653   -8.435209    1.174544
  H      2.966184   -7.594562    1.008128
  O      2.070666   -7.233873    0.985858
  H      2.003148   -6.882716    0.052299
  H      4.103329   -7.980646   -1.178268
  O      4.608380   -7.517131   -0.483256
  H      5.058626   -6.826256   -1.006553
  H     -1.365729   -6.944841    0.056575
  O     -1.968956   -6.179535   -0.085626
  H     -2.559009   -6.471420   -0.795637
  H      2.533947   -8.845812   -2.814647
  O      3.497068   -8.925161   -2.804387
  H      3.756768   -8.340672   -3.538052

 Total Charge           Charge          ....    0
 Multiplicity           Mult            ....    1
 Number of Electrons    NEL             ....   80
 Basis Dimension        Dim             ....  736

ORBITAL ENERGIES
----------------

  NO   OCC          E(Eh)            E(eV)
   0   2.0000     -20.652573      -561.9851
   1   2.0000     -20.614686      -560.9541
   2   2.0000     -20.593893      -560.3883
   3   2.0000     -20.584778      -560.1403
   4   2.0000     -20.574128      -559.8505
   5   2.0000     -20.551494      -559.2346
   6   2.0000     -20.540038      -558.9228
   7   2.0000     -20.523620      -558.4761
   8   2.0000      -1.434174       -39.0259
   9   2.0000      -1.397755       -38.0349
  10   2.0000      -1.374253       -37.3953
  11   2.0000      -1.364991       -37.1433
  12   2.0000      -1.359877       -37.0041
  13   2.0000      -1.332960       -36.2717
  14   2.0000      -1.322445       -35.9856
  15   2.0000      -1.302784       -35.4506
  16   2.0000      -0.785652       -21.3787
  17   2.0000      -0.755126       -20.5480
  18   2.0000      -0.748341       -20.3634
  19   2.0000      -0.729670       -19.8553
  20   2.0000      -0.724706       -19.7203
  21   2.0000      -0.710564       -19.3354
  22   2.0000      -0.698525       -19.0078
  23   2.0000      -0.674718       -18.3600
  24   2.0000      -0.664976       -18.0949
  25   2.0000      -0.639749       -17.4085
  26   2.0000      -0.636771       -17.3274
  27   2.0000      -0.610635       -16.6162
  28   2.0000      -0.605265       -16.4701
  29   2.0000      -0.591171       -16.0866
  30   2.0000      -0.562522       -15.3070
  31   2.0000      -0.553027       -15.0486
  32   2.0000      -0.552169       -15.0253
  33   2.0000      -0.548069       -14.9137
  34   2.0000      -0.532211       -14.4822
  35   2.0000      -0.523946       -14.2573
  36   2.0000      -0.504495       -13.7280
  37   2.0000      -0.497816       -13.5463
  38   2.0000      -0.487608       -13.2685
  39   2.0000      -0.466044       -12.6817
  40   0.0000      -0.000187        -0.0051
  41   0.0000       0.026203         0.7130
  42   0.0000       0.035790         0.9739
  43   0.0000       0.038804         1.0559
  44   0.0000       0.054365         1.4793

MULLIKEN ATOMIC CHARGES
-----------------------
   0 H :    0.477822
   1 O :   -0.602823
   2 H :    0.156854
   3 H :    0.119210
   4 O :   -0.306705
   5 H :    0.160305
   6 H :    0.259986
   7 O :   -0.599494
   8 H :    0.350937
   9 H :    0.343740
  10 O :   -0.543172
  11 H :    0.183342
  12 H :    0.244730
  13 O :   -0.637316
  14 H :    0.384670
  15 H :    0.470464
  16 O :   -0.578542
  17 H :    0.157428
  18 H :    0.394184
  19 O :   -0.611216
  20 H :    0.215601
  21 H :    0.304043
  22 O :   -0.552590
  23 H :    0.208541
Sum of atomic charges:    0.0000000

LOEWDIN ATOMIC CHARGES
----------------------
   0 H :   -0.693633
   1 O :    1.085200
   2 H :   -0.472436
   3 H :   -0.367605
   4 O :    1.140976
   5 H :   -0.308171
   6 H :   -0.631184
   7 O :    1.052018
   8 H :   -0.580008
   9 H :   -0.619754
  10 O :    1.099723
  11 H :   -0.396266
  12 H :   -0.536304
  13 O :    1.090326
  14 H :   -0.730127
  15 H :   -0.634559
  16 O :    1.053363
  17 H :   -0.465652
  18 H :   -0.730704
  19 O :    1.024482
  20 H :   -0.506839
  21 H :   -0.488294
  22 O :    1.084894
  23 H :   -0.469447

  Mayer bond orders larger than 0.100000
B(  0-H ,  1-O ) :   0.6559 B(  1-O ,  2-H ) :   1.0685 B(  3-H ,  4-O ) :   1.1036
B(  4-O ,  5-H ) :   1.0696 B(  4-O , 14-H ) :   0.1003 B(  6-H ,  7-O ) :   0.9563
B(  7-O ,  8-H ) :   0.8500 B(  9-H , 10-O ) :   0.8321 B( 10-O , 11-H ) :   1.0314
B( 12-H , 13-O ) :   1.0272 B( 13-O , 14-H ) :   0.7380 B( 15-H , 16-O ) :   0.7383
B( 16-O , 17-H ) :   1.0646 B( 18-H , 19-O ) :   0.7396 B( 19-O , 20-H ) :   1.0270
B( 21-H , 22-O ) :   0.8921 B( 22-O , 23-H ) :   1.0173

E(0)                                       ...   -608.486188733
E(0)                                       ...   -608.486188733
E(CORR)(strong-pairs)                      ...     -2.224231772
E(CORR)(weak-pairs)                        ...     -0.002134393
E(CORR)(corrected)                         ...     -2.226366165
E(TOT)                                     ...   -610.712554898
E(CCSD(T))                                 ...   -610.785304046
FINAL SINGLE POINT ENERGY      -610.785304045800

DIPOLE MOMENT
-------------
                                X             Y             Z
Electronic contribution:     -0.05604      -0.21431       0.18252
Nuclear contribution   :      2.32211       0.83555      -1.30278
                        -----------------------------------------
Total Dipole Moment    :      2.26607       0.62125      -1.12026
                        -----------------------------------------
Magnitude (a.u.)       :      2.60307
Magnitude (Debye)      :      6.61649

Rotational constants in cm-1:     0.034085     0.021967     0.016056
Rotational constants in MHz :  1021.846547   658.542347   481.346776

                             ****ORCA TERMINATED NORMALLY****
TOTAL RUN TIME: 0 days 0 hours 38 minutes 4 seconds 594 msec
