                         Program Version 5.0.2 -  RELEASE  -
|  1> ! DLPNO-CCSD(T) aug-cc-pVTZ aug-cc-pVTZ/C TightPNO
|  2> %pal
|  3> nprocs 6
|  4> end
|  5> *xyzfile 0 1 ch3oh.xyz
|  6>
|  7>
|  8>                          ****END OF INPUT****

CARTESIAN COORDINATES (ANGSTROEM)
---------------------------------
  C     -0.046529    0.661592   -0.000000
  O     -0.041771   -0.758940    0.000000
  H     -1.088389    0.972331   -0.000000
  H      0.875374   -1.051706    0.000000
  H      0.433441    1.082320    0.889356
  H      0.433441    1.082320   -0.889356

 Total Charge           Charge          ....    0
 Multiplicity           Mult            ....    1
 Number of Electrons    NEL             ....   18
 Basis Dimension        Dim             ....  184

ORBITAL ENERGIES
----------------

  NO   OCC          E(Eh)            E(eV)
   0   2.0000     -20.560383      -559.4765
   1   2.0000     -11.271673      -306.7178
   2   2.0000      -1.357645       -36.9434
   3   2.0000      -0.925563       -25.1859
   4   2.0000      -0.691091       -18.8055
   5   2.0000      -0.619635       -16.8611
   6   2.0000      -0.593404       -16.1473
   7   2.0000      -0.504354       -13.7242
   8   2.0000      -0.452005       -12.2997
   9   0.0000       0.028476         0.7749
  10   0.0000       0.042928         1.1681
  11   0.0000       0.046654         1.2695
  12   0.0000       0.053023         1.4428
  13   0.0000       0.099094         2.6965

MULLIKEN ATOMIC CHARGES
-----------------------
   0 C :   -0.623716
   1 O :   -0.503797
   2 H :    0.323362
   3 H :    0.196491
   4 H :    0.303830
   5 H :    0.303830
Sum of atomic charges:    0.0000000

LOEWDIN ATOMIC CHARGES
----------------------
   0 C :    0.320112
   1 O :    0.770543
   2 H :   -0.201032
   3 H :   -0.509909
   4 H :   -0.189857
   5 H :   -0.189857

  Mayer bond orders larger than 0.100000
B(  0-C ,  1-O ) :   0.8238 B(  0-C ,  2-H ) :   0.9074 B(  0-C ,  4-H ) :   0.9017
B(  0-C ,  5-H ) :   0.9017 B(  1-O ,  3-H ) :   0.9812

E(0)                                       ...   -115.091874371
E(0)                                       ...   -115.091874371
E(CORR)(strong-pairs)                      ...     -0.454621474
E(CORR)(weak-pairs)                        ...     -0.000199951
E(CORR)(corrected)                         ...     -0.454821425
E(TOT)                                     ...   -115.546695796
E(CCSD(T))                                 ...   -115.561988061
FINAL SINGLE POINT ENERGY      -115.561988061195

DIPOLE MOMENT
-------------
                                X             Y             Z
Electronic contribution:     -0.11245      -1.76463       0.00000
Nuclear contribution   :      0.67962       2.19133      -0.00000
                        -----------------------------------------
Total Dipole Moment    :      0.56716       0.42670      -0.00000
                        -----------------------------------------
Magnitude (a.u.)       :      0.70975
Magnitude (Debye)      :      1.80404

Rotational constants in cm-1:     4.290718     0.825768     0.796892
Rotational constants in MHz : 128632.490843 24755.898399 23890.216493

                             ****ORCA TERMINATED NORMALLY****
TOTAL RUN TIME: 0 days 0 hours 4 minutes 54 seconds 164 msec
