 Gaussian 16, Revision B.01,
 Gaussian 16:  ES64L-G16RevB.01 20-Dec-2017

 --------------------
 #P B97D3/aug-cc-pvtz
 --------------------

 -----
 Title
 -----
 Symbolic Z-matrix:
 Charge =  0 Multiplicity = 1

                         Standard orientation:
 ---------------------------------------------------------------------
 Center     Atomic      Atomic             Coordinates (Angstroms)
 Number     Number       Type             X           Y           Z
 ---------------------------------------------------------------------
      1          7           0        0.000226   -0.000052   -0.113627
      2          1           0       -0.521998   -0.785094    0.264979
      3          1           0       -0.423694    0.841772    0.264852
      4          1           0        0.944112   -0.056310    0.265556
 ---------------------------------------------------------------------

 SCF Done:  E(RB97D3) =  -56.5553428260     A.U. after    9 cycles

 The electronic state is 1-A.
 Alpha  occ. eigenvalues --  -13.97738  -0.78026  -0.41618  -0.41556  -0.22673
 Alpha virt. eigenvalues --   -0.02397   0.02170   0.02183   0.06362   0.08402
 Alpha virt. eigenvalues --    0.11092   0.11108   0.11663   0.11692   0.15674
 Alpha virt. eigenvalues --    0.15700   0.16527   0.25962   0.28715   0.29570

 Mulliken charges:
               1
     1  N   -0.391778
     2  H    0.130131
     3  H    0.129919
     4  H    0.131728
 Sum of Mulliken charges =  -0.00000

 Dipole moment (field-independent basis, Debye):
    X=             -0.0029    Y=              0.0006    Z=              1.4529  Tot=              1.4529
 Quadrupole moment (field-independent basis, Debye-Ang):
   XX=             -6.3656   YY=             -6.3931   ZZ=             -9.4996
   XY=              0.0000   XZ=             -0.0016   YZ=              0.0002

 Normal termination of Gaussian 16 at Mon Feb  8 14:51:05 2021.
