                         Program Version 4.2.1 -  RELEASE  -
|  1> ! DLPNO-CCSD(T) aug-cc-pVTZ aug-cc-pVTZ/C TightPNO
|  2> %maxcore 2000
|  3> %pal
|  4> nprocs 10
|  5> end
|  6> # Title
|  7> *xyz 0 1
|  8> H     9.611042    -3.860093     2.083361
|  9> O     9.320933    -3.620697     1.171032
| 10> H     10.115892    -3.474568     0.638029
| 11> H     6.621822    -3.879811     0.271307
| 12> O     7.123984    -4.682844     0.033487
| 13> H     8.005896    -4.474873     0.430048
| 14> H     7.477795    -4.428871    -1.655320
| 15> O     7.626929    -4.460219    -2.633142
| 16> H     6.863763    -3.961878    -2.988769
| 17> H     3.986486    -8.065398    -1.087126
| 18> O     4.574151    -7.563752    -0.489457
| 19> H     5.022159    -6.963490    -1.122482
| 20> H     6.693837    -5.941377    -2.760720
| 21> O     5.938522    -6.576658    -2.774356
| 22> H     6.303544    -7.484208    -2.751443
| 23> H     6.274716    -5.751055     1.137336
| 24> O     5.776176    -6.326265     1.762539
| 25> H     5.362569    -6.980467     1.176471
| 26> H     5.941295    -9.026198    -1.381046
| 27> O     6.349980    -9.281403    -2.225668
| 28> H     5.619979    -9.700124    -2.702036
| 29> H     7.095911    -6.209169     3.218711
| 30> O     7.513650    -5.854231     4.024511
| 31> H     7.023769    -5.017874     4.173105
| 32> *
| 33>
| 34>
| 35>                          ****END OF INPUT****

CARTESIAN COORDINATES (ANGSTROEM)
---------------------------------
  H      9.611042   -3.860093    2.083361
  O      9.320933   -3.620697    1.171032
  H     10.115892   -3.474568    0.638029
  H      6.621822   -3.879811    0.271307
  O      7.123984   -4.682844    0.033487
  H      8.005896   -4.474873    0.430048
  H      7.477795   -4.428871   -1.655320
  O      7.626929   -4.460219   -2.633142
  H      6.863763   -3.961878   -2.988769
  H      3.986486   -8.065398   -1.087126
  O      4.574151   -7.563752   -0.489457
  H      5.022159   -6.963490   -1.122482
  H      6.693837   -5.941377   -2.760720
  O      5.938522   -6.576658   -2.774356
  H      6.303544   -7.484208   -2.751443
  H      6.274716   -5.751055    1.137336
  O      5.776176   -6.326265    1.762539
  H      5.362569   -6.980467    1.176471
  H      5.941295   -9.026198   -1.381046
  O      6.349980   -9.281403   -2.225668
  H      5.619979   -9.700124   -2.702036
  H      7.095911   -6.209169    3.218711
  O      7.513650   -5.854231    4.024511
  H      7.023769   -5.017874    4.173105

 Total Charge           Charge          ....    0
 Multiplicity           Mult            ....    1
 Number of Electrons    NEL             ....   80
 Basis Dimension        Dim             ....  736

ORBITAL ENERGIES
----------------

  NO   OCC          E(Eh)            E(eV)
   0   2.0000     -20.617981      -561.0438
   1   2.0000     -20.599033      -560.5282
   2   2.0000     -20.581042      -560.0386
   3   2.0000     -20.572470      -559.8054
   4   2.0000     -20.566489      -559.6426
   5   2.0000     -20.534682      -558.7771
   6   2.0000     -20.533929      -558.7566
   7   2.0000     -20.528065      -558.5971
   8   2.0000      -1.401336       -38.1323
   9   2.0000      -1.384206       -37.6662
  10   2.0000      -1.369540       -37.2671
  11   2.0000      -1.354215       -36.8501
  12   2.0000      -1.349374       -36.7183
  13   2.0000      -1.316725       -35.8299
  14   2.0000      -1.312752       -35.7218
  15   2.0000      -1.306394       -35.5488
  16   2.0000      -0.763001       -20.7623
  17   2.0000      -0.747212       -20.3327
  18   2.0000      -0.726768       -19.7764
  19   2.0000      -0.719487       -19.5782
  20   2.0000      -0.714610       -19.4455
  21   2.0000      -0.702667       -19.1205
  22   2.0000      -0.692880       -18.8542
  23   2.0000      -0.673494       -18.3267
  24   2.0000      -0.655934       -17.8489
  25   2.0000      -0.620047       -16.8723
  26   2.0000      -0.609179       -16.5766
  27   2.0000      -0.605050       -16.4642
  28   2.0000      -0.589731       -16.0474
  29   2.0000      -0.573081       -15.5943
  30   2.0000      -0.564578       -15.3629
  31   2.0000      -0.557961       -15.1829
  32   2.0000      -0.541220       -14.7273
  33   2.0000      -0.521812       -14.1992
  34   2.0000      -0.517971       -14.0947
  35   2.0000      -0.513230       -13.9657
  36   2.0000      -0.500934       -13.6311
  37   2.0000      -0.482097       -13.1185
  38   2.0000      -0.476881       -12.9766
  39   2.0000      -0.475002       -12.9255
  40   0.0000       0.015738         0.4283
  41   0.0000       0.026155         0.7117
  42   0.0000       0.032931         0.8961
  43   0.0000       0.040141         1.0923
  44   0.0000       0.053062         1.4439

MULLIKEN ATOMIC CHARGES
-----------------------
   0 H :    0.246270
   1 O :   -0.421654
   2 H :    0.204159
   3 H :    0.164117
   4 O :   -0.424618
   5 H :    0.322714
   6 H :    0.348732
   7 O :   -0.539847
   8 H :    0.169855
   9 H :    0.195796
  10 O :   -0.646431
  11 H :    0.435847
  12 H :    0.289110
  13 O :   -0.657221
  14 H :    0.325221
  15 H :    0.343675
  16 O :   -0.653885
  17 H :    0.279169
  18 H :    0.340343
  19 O :   -0.507403
  20 H :    0.185164
  21 H :    0.356053
  22 O :   -0.577101
  23 H :    0.221935
Sum of atomic charges:    0.0000000

LOEWDIN ATOMIC CHARGES
----------------------
   0 H :   -0.398155
   1 O :    1.093545
   2 H :   -0.435365
   3 H :   -0.371733
   4 O :    1.157871
   5 H :   -0.612682
   6 H :   -0.666722
   7 O :    1.081594
   8 H :   -0.430105
   9 H :   -0.440162
  10 O :    1.090373
  11 H :   -0.599616
  12 H :   -0.667489
  13 O :    1.086658
  14 H :   -0.624729
  15 H :   -0.679336
  16 O :    1.091715
  17 H :   -0.623428
  18 H :   -0.537966
  19 O :    1.087181
  20 H :   -0.454056
  21 H :   -0.660959
  22 O :    1.001865
  23 H :   -0.488301

  Mayer bond orders larger than 0.100000
B(  0-H ,  1-O ) :   0.9840 B(  1-O ,  2-H ) :   1.0190 B(  3-H ,  4-O ) :   1.0569
B(  4-O ,  5-H ) :   0.9264 B(  6-H ,  7-O ) :   0.7940 B(  7-O ,  8-H ) :   1.0638
B(  9-H , 10-O ) :   0.9716 B( 10-O , 11-H ) :   0.7430 B( 12-H , 13-O ) :   0.8804
B( 13-O , 14-H ) :   0.9353 B( 15-H , 16-O ) :   0.8381 B( 16-O , 17-H ) :   0.9782
B( 18-H , 19-O ) :   0.8714 B( 19-O , 20-H ) :   1.0408 B( 21-H , 22-O ) :   0.8351
B( 22-O , 23-H ) :   0.9947

E(0)                                       ...   -608.505266021
E(0)                                       ...   -608.505266021
E(CORR)(strong-pairs)                      ...     -2.222512879
E(CORR)(weak-pairs)                        ...     -0.002029716
E(CORR)(corrected)                         ...     -2.224542595
E(TOT)                                     ...   -610.729808616
E(CCSD(T))                                 ...   -610.802465533
FINAL SINGLE POINT ENERGY      -610.802465532859

DIPOLE MOMENT
-------------
                                X             Y             Z
Electronic contribution:      0.55639       0.01030       0.10860
Nuclear contribution   :     -0.35640       1.25910      -0.88103
                        -----------------------------------------
Total Dipole Moment    :      0.19999       1.26940      -0.77243
                        -----------------------------------------
Magnitude (a.u.)       :      1.49934
Magnitude (Debye)      :      3.81102

Rotational constants in cm-1:     0.030607     0.017588     0.012632
Rotational constants in MHz :   917.568127   527.287761   378.692283

                             ****ORCA TERMINATED NORMALLY****
TOTAL RUN TIME: 0 days 0 hours 28 minutes 41 seconds 113 msec
