                         Program Version 5.0.2 -  RELEASE  -
|  1> !B97-3c
|  2> !opt freq
|  3> %pal
|  4> nprocs 6
|  5> end
|  6> *xyz 0 1
|  7> C        -0.04954807103842    0.66470660749032   -0.00000000140752
|  8> O        -0.03892433353388   -0.74160101890422   -0.00000000564427
|  9> H        -1.09534081494088    0.96634015588509    0.00000000216724
| 10> H         0.87358678704300   -1.04891923553173    0.00000000731092
| 11> H         0.43789671809980    1.07369524281741    0.89173309318696
| 12> H         0.43789671437038    1.07369524824312   -0.89173309561333
| 13> *
| 14>
| 15>                          ****END OF INPUT****
 Total Charge           Charge          ....    0
 Multiplicity           Mult            ....    1
 Number of Electrons    NEL             ....   18
Dispersion correction           -0.004475325
FINAL SINGLE POINT ENERGY      -115.673255083566
Dispersion correction            ... done
Dispersion correction           -0.004469117
FINAL SINGLE POINT ENERGY      -115.673475529544
Dispersion correction            ... done
Dispersion correction           -0.004468024
FINAL SINGLE POINT ENERGY      -115.673504672657
Dispersion correction            ... done
Dispersion correction           -0.004468563
FINAL SINGLE POINT ENERGY      -115.673506880762
Dispersion correction            ... done
Dispersion correction           -0.004469038
FINAL SINGLE POINT ENERGY      -115.673507306329
Dispersion correction            ... done
                    ***********************HURRAY********************

CARTESIAN COORDINATES (ANGSTROEM)
---------------------------------
  C     -0.046524    0.661615   -0.000000
  O     -0.041765   -0.758918   -0.000000
  H     -1.088398    0.972314    0.000000
  H      0.875376   -1.051750    0.000000
  H      0.433439    1.082327    0.889362
  H      0.433439    1.082327   -0.889362

 Multiplicity           Mult            ....    1
 Number of Electrons    NEL             ....   18
 Basis Dimension        Dim             ....   55

ORBITAL ENERGIES
----------------

  NO   OCC          E(Eh)            E(eV)
   0   2.0000     -18.742026      -509.9965
   1   2.0000      -9.930002      -270.2091
   2   2.0000      -0.937125       -25.5005
   3   2.0000      -0.621968       -16.9246
   4   2.0000      -0.460110       -12.5202
   5   2.0000      -0.389750       -10.6056
   6   2.0000      -0.379384       -10.3236
   7   2.0000      -0.293008        -7.9732
   8   2.0000      -0.226456        -6.1622
   9   0.0000       0.016226         0.4415
  10   0.0000       0.058125         1.5817
  11   0.0000       0.103453         2.8151
  12   0.0000       0.108809         2.9608
  13   0.0000       0.123399         3.3579

MULLIKEN ATOMIC CHARGES
-----------------------
   0 C :   -0.338092
   1 O :   -0.567790
   2 H :    0.177431
   3 H :    0.417807
   4 H :    0.155322
   5 H :    0.155322
Sum of atomic charges:   -0.0000000

LOEWDIN ATOMIC CHARGES
----------------------
   0 C :   -0.077906
   1 O :   -0.757010
   2 H :    0.175222
   3 H :    0.355115
   4 H :    0.152290
   5 H :    0.152290

  Mayer bond orders larger than 0.100000
B(  0-C ,  1-O ) :   0.9310 B(  0-C ,  2-H ) :   0.9665 B(  0-C ,  4-H ) :   0.9539
B(  0-C ,  5-H ) :   0.9539 B(  1-O ,  3-H ) :   0.7894

Dispersion correction           -0.004469118
FINAL SINGLE POINT ENERGY      -115.673507335813

DIPOLE MOMENT
-------------
                                X             Y             Z
Electronic contribution:     -0.15985      -1.82839      -0.00000
Nuclear contribution   :      0.67959       2.19122       0.00000
                        -----------------------------------------
Total Dipole Moment    :      0.51974       0.36282       0.00000
                        -----------------------------------------
Magnitude (a.u.)       :      0.63385
Magnitude (Debye)      :      1.61112

Dispersion correction in the Hessian             ... done   (      0.3 sec)

VIBRATIONAL FREQUENCIES
-----------------------

Scaling factor for frequencies =  1.000000000  (already applied!)

   0:         0.00 cm**-1
   1:         0.00 cm**-1
   2:         0.00 cm**-1
   3:         0.00 cm**-1
   4:         0.00 cm**-1
   5:         0.00 cm**-1
   6:       328.46 cm**-1
   7:      1032.51 cm**-1
   8:      1080.35 cm**-1
   9:      1163.84 cm**-1
  10:      1383.30 cm**-1
  11:      1479.14 cm**-1
  12:      1497.71 cm**-1
  13:      1515.76 cm**-1
  14:      2945.12 cm**-1
  15:      2990.13 cm**-1
  16:      3076.19 cm**-1
  17:      3758.21 cm**-1

IR SPECTRUM
-----------

 Mode   freq       eps      Int      T**2         TX        TY        TZ
       cm**-1   L/(mol*cm) km/mol    a.u.
----------------------------------------------------------------------------
  6:    328.46   0.021808  110.21  0.020720  ( 0.000000  0.000000 -0.143943)
  7:   1032.51   0.022655  114.49  0.006847  (-0.001592 -0.082732  0.000000)
  8:   1080.35   0.000636    3.22  0.000184  ( 0.006527  0.011884 -0.000000)
  9:   1163.84   0.000027    0.14  0.000007  (-0.000000 -0.000000 -0.002679)
 10:   1383.30   0.004693   23.72  0.001059  (-0.005158 -0.032128 -0.000000)
 11:   1479.14   0.000834    4.21  0.000176  ( 0.001439  0.013185 -0.000000)
 12:   1497.71   0.000386    1.95  0.000080  ( 0.000000 -0.000000 -0.008964)
 13:   1515.76   0.000903    4.56  0.000186  ( 0.012399 -0.005672  0.000000)
 14:   2945.12   0.015255   77.09  0.001616  (-0.012630 -0.038169  0.000000)
 15:   2990.13   0.015397   77.81  0.001607  (-0.000000 -0.000000 -0.040087)
 16:   3076.19   0.007119   35.98  0.000722  (-0.026425  0.004890 -0.000000)
 17:   3758.21   0.003029   15.31  0.000252  ( 0.010919 -0.011503 -0.000000)

--------------------------
THERMOCHEMISTRY AT 298.15K
--------------------------

Temperature         ... 298.15 K
Pressure            ... 1.00 atm
Total Mass          ... 32.04 AMU

Throughout the following assumptions are being made:
  (1) The electronic state is orbitally nondegenerate
  (2) There are no thermally accessible electronically excited states
  (3) Hindered rotations indicated by low frequency modes are not
      treated as such but are treated as vibrations and this may
      cause some error
  (4) All equations used are the standard statistical mechanics
      equations for an ideal gas
  (5) All vibrations are strictly harmonic

freq.     328.46  E(vib)   ...       0.24
freq.    1032.51  E(vib)   ...       0.02
freq.    1080.35  E(vib)   ...       0.02
freq.    1163.84  E(vib)   ...       0.01
freq.    1383.30  E(vib)   ...       0.00
freq.    1479.14  E(vib)   ...       0.00
freq.    1497.71  E(vib)   ...       0.00
freq.    1515.76  E(vib)   ...       0.00
freq.    2945.12  E(vib)   ...       0.00
freq.    2990.13  E(vib)   ...       0.00
freq.    3076.19  E(vib)   ...       0.00
freq.    3758.21  E(vib)   ...       0.00

------------
INNER ENERGY
------------

The inner energy is: U= E(el) + E(ZPE) + E(vib) + E(rot) + E(trans)
    E(el)   - is the total energy from the electronic structure calculation
              = E(kin-el) + E(nuc-el) + E(el-el) + E(nuc-nuc)
    E(ZPE)  - the the zero temperature vibrational energy from the frequency calculation
    E(vib)  - the the finite temperature correction to E(ZPE) due to population
              of excited vibrational states
    E(rot)  - is the rotational thermal energy
    E(trans)- is the translational thermal energy

Summary of contributions to the inner energy U:
Electronic energy                ...   -115.67350734 Eh
Zero point energy                ...      0.05069084 Eh      31.81 kcal/mol
Thermal vibrational correction   ...      0.00048748 Eh       0.31 kcal/mol
Thermal rotational correction    ...      0.00141627 Eh       0.89 kcal/mol
Thermal translational correction ...      0.00141627 Eh       0.89 kcal/mol
-----------------------------------------------------------------------
Total thermal energy                   -115.61949647 Eh

Summary of corrections to the electronic energy:
(perhaps to be used in another calculation)
Total thermal correction                  0.00332002 Eh       2.08 kcal/mol
Non-thermal (ZPE) correction              0.05069084 Eh      31.81 kcal/mol
-----------------------------------------------------------------------
Total correction                          0.05401086 Eh      33.89 kcal/mol

--------
ENTHALPY
--------

The enthalpy is H = U + kB*T
                kB is Boltzmann's constant
Total free energy                 ...   -115.61949647 Eh
Thermal Enthalpy correction       ...      0.00094421 Eh       0.59 kcal/mol
-----------------------------------------------------------------------
Total Enthalpy                    ...   -115.61855226 Eh

Note: Rotational entropy computed according to Herzberg
Infrared and Raman Spectra, Chapter V,1, Van Nostrand Reinhold, 1945
Point Group:  Cs, Symmetry Number:   1
Rotational constants in cm-1:     4.290689     0.825766     0.796891

Vibrational entropy computed according to the QRRHO of S. Grimme
Chem.Eur.J. 2012 18 9955

-------
ENTROPY
-------

The entropy contributions are T*S = T*(S(el)+S(vib)+S(rot)+S(trans))
     S(el)   - electronic entropy
     S(vib)  - vibrational entropy
     S(rot)  - rotational entropy
     S(trans)- translational entropy
The entropies will be listed as multiplied by the temperature to get
units of energy

Electronic entropy                ...      0.00000000 Eh      0.00 kcal/mol
Vibrational entropy               ...      0.00072405 Eh      0.45 kcal/mol
Rotational entropy                ...      0.00902080 Eh      5.66 kcal/mol
Translational entropy             ...      0.01725935 Eh     10.83 kcal/mol
-----------------------------------------------------------------------
Final entropy term                ...      0.02700420 Eh     16.95 kcal/mol

In case the symmetry of your molecule has not been determined correctly
or in case you have a reason to use a different symmetry number we print
out the resulting rotational entropy values for sn=1,12 :
 --------------------------------------------------------
|  sn= 1 | S(rot)=       0.00902080 Eh      5.66 kcal/mol|
|  sn= 2 | S(rot)=       0.00836634 Eh      5.25 kcal/mol|
|  sn= 3 | S(rot)=       0.00798351 Eh      5.01 kcal/mol|
|  sn= 4 | S(rot)=       0.00771188 Eh      4.84 kcal/mol|
|  sn= 5 | S(rot)=       0.00750120 Eh      4.71 kcal/mol|
|  sn= 6 | S(rot)=       0.00732905 Eh      4.60 kcal/mol|
|  sn= 7 | S(rot)=       0.00718350 Eh      4.51 kcal/mol|
|  sn= 8 | S(rot)=       0.00705743 Eh      4.43 kcal/mol|
|  sn= 9 | S(rot)=       0.00694622 Eh      4.36 kcal/mol|
|  sn=10 | S(rot)=       0.00684674 Eh      4.30 kcal/mol|
|  sn=11 | S(rot)=       0.00675675 Eh      4.24 kcal/mol|
|  sn=12 | S(rot)=       0.00667459 Eh      4.19 kcal/mol|
 --------------------------------------------------------

-------------------
GIBBS FREE ENERGY
-------------------

The Gibbs free energy is G = H - T*S

Total enthalpy                    ...   -115.61855226 Eh
Total entropy correction          ...     -0.02700420 Eh    -16.95 kcal/mol
-----------------------------------------------------------------------
Final Gibbs free energy         ...   -115.64555647 Eh

For completeness - the Gibbs free energy minus the electronic energy
G-E(el)                           ...      0.02795087 Eh     17.54 kcal/mol

                             ****ORCA TERMINATED NORMALLY****
TOTAL RUN TIME: 0 days 0 hours 1 minutes 41 seconds 192 msec
