                         Program Version 5.0.2 -  RELEASE  -
|  1> ! DLPNO-CCSD(T) aug-cc-pVTZ aug-cc-pVTZ/C TightPNO
|  2> %pal
|  3> nprocs 6
|  4> end
|  5> *xyzfile 0 1 ch3oh.xyz
|  6>
|  7>
|  8>                          ****END OF INPUT****

CARTESIAN COORDINATES (ANGSTROEM)
---------------------------------
  C     -0.046524    0.661615   -0.000000
  O     -0.041765   -0.758918   -0.000000
  H     -1.088398    0.972314    0.000000
  H      0.875376   -1.051750    0.000000
  H      0.433439    1.082327    0.889362
  H      0.433439    1.082327   -0.889362

 Total Charge           Charge          ....    0
 Multiplicity           Mult            ....    1
 Number of Electrons    NEL             ....   18
 Basis Dimension        Dim             ....  184

ORBITAL ENERGIES
----------------

  NO   OCC          E(Eh)            E(eV)
   0   2.0000     -20.560381      -559.4764
   1   2.0000     -11.271672      -306.7178
   2   2.0000      -1.357637       -36.9432
   3   2.0000      -0.925563       -25.1858
   4   2.0000      -0.691087       -18.8054
   5   2.0000      -0.619637       -16.8612
   6   2.0000      -0.593401       -16.1473
   7   2.0000      -0.504349       -13.7240
   8   2.0000      -0.452004       -12.2997
   9   0.0000       0.028476         0.7749
  10   0.0000       0.042929         1.1681
  11   0.0000       0.046653         1.2695
  12   0.0000       0.053023         1.4428
  13   0.0000       0.099094         2.6965

MULLIKEN ATOMIC CHARGES
-----------------------
   0 C :   -0.623727
   1 O :   -0.503804
   2 H :    0.323361
   3 H :    0.196494
   4 H :    0.303838
   5 H :    0.303838
Sum of atomic charges:    0.0000000

LOEWDIN ATOMIC CHARGES
----------------------
   0 C :    0.320111
   1 O :    0.770520
   2 H :   -0.201031
   3 H :   -0.509877
   4 H :   -0.189862
   5 H :   -0.189862

  Mayer bond orders larger than 0.100000
B(  0-C ,  1-O ) :   0.8238 B(  0-C ,  2-H ) :   0.9074 B(  0-C ,  4-H ) :   0.9017
B(  0-C ,  5-H ) :   0.9017 B(  1-O ,  3-H ) :   0.9813

E(0)                                       ...   -115.091874209
E(0)                                       ...   -115.091874209
E(CORR)(strong-pairs)                      ...     -0.454621719
E(CORR)(weak-pairs)                        ...     -0.000199951
E(CORR)(corrected)                         ...     -0.454821670
E(TOT)                                     ...   -115.546695879
E(CCSD(T))                                 ...   -115.561988190
FINAL SINGLE POINT ENERGY      -115.561988189972

DIPOLE MOMENT
-------------
                                X             Y             Z
Electronic contribution:     -0.11242      -1.76455      -0.00000
Nuclear contribution   :      0.67959       2.19122       0.00000
                        -----------------------------------------
Total Dipole Moment    :      0.56716       0.42667       0.00000
                        -----------------------------------------
Magnitude (a.u.)       :      0.70973
Magnitude (Debye)      :      1.80400

Rotational constants in cm-1:     4.290689     0.825766     0.796891
Rotational constants in MHz : 128631.628513 24755.848058 23890.190849

                             ****ORCA TERMINATED NORMALLY****
TOTAL RUN TIME: 0 days 0 hours 4 minutes 30 seconds 784 msec
