                         Program Version 4.2.1 -  RELEASE  -
|  1> ! DLPNO-CCSD(T) aug-cc-pVTZ aug-cc-pVTZ/C TightPNO
|  2> %maxcore 2000
|  3> %pal
|  4> nprocs 10
|  5> end
|  6> # Title
|  7> *xyz 0 1
|  8> H     6.008005    -1.289275     1.352520
|  9> O     5.486910    -0.446638     1.297448
| 10> H     6.207225     0.208036     1.340878
| 11> H     7.124154    -2.968956     4.722455
| 12> O     6.395258    -3.419782     4.219362
| 13> H     5.576128    -3.067087     4.656598
| 14> H     8.178579     1.490798     1.435951
| 15> O     8.065567     0.566376     1.732001
| 16> H     8.501639    -0.003334     1.058733
| 17> H     8.213713    -1.189105    -0.789994
| 18> O     9.003734    -0.838678    -0.316161
| 19> H     9.707408    -1.503945    -0.447109
| 20> H     9.646920    -4.021544     2.140957
| 21> O     9.349260    -3.821971     1.214191
| 22> H     10.128422    -3.619729     0.678982
| 23> H     6.742718     0.162340     4.309974
| 24> O     7.708612     0.375589     4.291478
| 25> H     7.941586     0.342296     3.320335
| 26> H     8.049365    -1.948670     6.255223
| 27> O     8.420160    -2.124219     5.367633
| 28> H     8.296271    -1.253510     4.924772
| 29> H     8.146042     0.555454     7.432329
| 30> O     8.486889     1.240149     6.838429
| 31> H     8.294276     0.876881     5.948986
| 32> H     6.766748    -2.829020     2.686968
| 33> O     6.916559    -2.614974     1.733755
| 34> H     7.867751    -2.744074     1.563106
| 35> H     10.428608    -2.784585    -1.872491
| 36> O     10.903796    -2.760628    -0.997872
| 37> H     11.769098    -2.399592    -1.219333
| 38> H     9.076703    -5.080064     3.912708
| 39> O     9.770468    -4.396276     3.789994
| 40> H     9.522410    -3.697284     4.416645
| 41> H     9.549168     0.812485    -0.727290
| 42> O     9.626519     1.788827    -0.781980
| 43> H     9.930102     1.937157    -1.689565
| 44> *
| 45>
| 46>
| 47>                          ****END OF INPUT****

CARTESIAN COORDINATES (ANGSTROEM)
---------------------------------
  H      6.008005   -1.289275    1.352520
  O      5.486910   -0.446638    1.297448
  H      6.207225    0.208036    1.340878
  H      7.124154   -2.968956    4.722455
  O      6.395258   -3.419782    4.219362
  H      5.576128   -3.067087    4.656598
  H      8.178579    1.490798    1.435951
  O      8.065567    0.566376    1.732001
  H      8.501639   -0.003334    1.058733
  H      8.213713   -1.189105   -0.789994
  O      9.003734   -0.838678   -0.316161
  H      9.707408   -1.503945   -0.447109
  H      9.646920   -4.021544    2.140957
  O      9.349260   -3.821971    1.214191
  H     10.128422   -3.619729    0.678982
  H      6.742718    0.162340    4.309974
  O      7.708612    0.375589    4.291478
  H      7.941586    0.342296    3.320335
  H      8.049365   -1.948670    6.255223
  O      8.420160   -2.124219    5.367633
  H      8.296271   -1.253510    4.924772
  H      8.146042    0.555454    7.432329
  O      8.486889    1.240149    6.838429
  H      8.294276    0.876881    5.948986
  H      6.766748   -2.829020    2.686968
  O      6.916559   -2.614974    1.733755
  H      7.867751   -2.744074    1.563106
  H     10.428608   -2.784585   -1.872491
  O     10.903796   -2.760628   -0.997872
  H     11.769098   -2.399592   -1.219333
  H      9.076703   -5.080064    3.912708
  O      9.770468   -4.396276    3.789994
  H      9.522410   -3.697284    4.416645
  H      9.549168    0.812485   -0.727290
  O      9.626519    1.788827   -0.781980
  H      9.930102    1.937157   -1.689565

 Total Charge           Charge          ....    0
 Multiplicity           Mult            ....    1
 Number of Electrons    NEL             ....  120
 Basis Dimension        Dim             .... 1104

ORBITAL ENERGIES
----------------

  NO   OCC          E(Eh)            E(eV)
   0   2.0000     -20.641333      -561.6792
   1   2.0000     -20.610459      -560.8391
   2   2.0000     -20.605522      -560.7047
   3   2.0000     -20.584261      -560.1262
   4   2.0000     -20.574506      -559.8608
   5   2.0000     -20.573647      -559.8374
   6   2.0000     -20.572013      -559.7929
   7   2.0000     -20.557820      -559.4067
   8   2.0000     -20.542307      -558.9846
   9   2.0000     -20.538768      -558.8883
  10   2.0000     -20.514219      -558.2203
  11   2.0000     -20.487120      -557.4829
  12   2.0000      -1.422320       -38.7033
  13   2.0000      -1.397642       -38.0318
  14   2.0000      -1.395371       -37.9700
  15   2.0000      -1.368419       -37.2366
  16   2.0000      -1.367397       -37.2088
  17   2.0000      -1.350286       -36.7431
  18   2.0000      -1.345784       -36.6206
  19   2.0000      -1.338206       -36.4144
  20   2.0000      -1.322993       -36.0005
  21   2.0000      -1.321021       -35.9468
  22   2.0000      -1.302769       -35.4501
  23   2.0000      -1.267030       -34.4776
  24   2.0000      -0.783089       -21.3089
  25   2.0000      -0.763712       -20.7817
  26   2.0000      -0.748906       -20.3788
  27   2.0000      -0.744303       -20.2535
  28   2.0000      -0.733033       -19.9469
  29   2.0000      -0.727974       -19.8092
  30   2.0000      -0.722061       -19.6483
  31   2.0000      -0.717590       -19.5266
  32   2.0000      -0.714427       -19.4406
  33   2.0000      -0.692581       -18.8461
  34   2.0000      -0.692113       -18.8334
  35   2.0000      -0.658015       -17.9055
  36   2.0000      -0.652776       -17.7629
  37   2.0000      -0.644354       -17.5338
  38   2.0000      -0.638890       -17.3851
  39   2.0000      -0.623197       -16.9580
  40   2.0000      -0.610217       -16.6048
  41   2.0000      -0.599076       -16.3017
  42   2.0000      -0.593602       -16.1527
  43   2.0000      -0.584304       -15.8997
  44   2.0000      -0.574496       -15.6328
  45   2.0000      -0.564073       -15.3492
  46   2.0000      -0.555779       -15.1235
  47   2.0000      -0.548062       -14.9135
  48   2.0000      -0.540481       -14.7072
  49   2.0000      -0.534945       -14.5566
  50   2.0000      -0.529828       -14.4174
  51   2.0000      -0.520136       -14.1536
  52   2.0000      -0.516714       -14.0605
  53   2.0000      -0.504284       -13.7223
  54   2.0000      -0.501109       -13.6359
  55   2.0000      -0.495112       -13.4727
  56   2.0000      -0.484101       -13.1731
  57   2.0000      -0.483212       -13.1489
  58   2.0000      -0.456198       -12.4138
  59   2.0000      -0.433754       -11.8031
  60   0.0000       0.002073         0.0564
  61   0.0000       0.018336         0.4989
  62   0.0000       0.030279         0.8239
  63   0.0000       0.032381         0.8811
  64   0.0000       0.041614         1.1324

MULLIKEN ATOMIC CHARGES
-----------------------
   0 H :    0.364459
   1 O :   -0.749097
   2 H :    0.342532
   3 H :    0.387681
   4 O :   -0.521702
   5 H :    0.165132
   6 H :    0.173428
   7 O :   -0.543425
   8 H :    0.449532
   9 H :    0.226343
  10 O :   -0.545668
  11 H :    0.374372
  12 H :    0.310675
  13 O :   -0.629510
  14 H :    0.305040
  15 H :    0.220627
  16 O :   -0.724727
  17 H :    0.373948
  18 H :    0.145113
  19 O :   -0.606890
  20 H :    0.462927
  21 H :    0.176606
  22 O :   -0.544175
  23 H :    0.381645
  24 H :    0.326795
  25 O :   -0.679283
  26 H :    0.361319
  27 H :    0.248972
  28 O :   -0.481074
  29 H :    0.188749
  30 H :    0.215650
  31 O :   -0.510951
  32 H :    0.358512
  33 H :    0.342432
  34 O :   -0.531500
  35 H :    0.165509
Sum of atomic charges:   -0.0000000

LOEWDIN ATOMIC CHARGES
----------------------
   0 H :   -0.771972
   1 O :    1.019407
   2 H :   -0.653443
   3 H :   -0.696904
   4 O :    1.092651
   5 H :   -0.388577
   6 H :   -0.374007
   7 O :    1.172145
   8 H :   -0.644602
   9 H :   -0.338265
  10 O :    1.176520
  11 H :   -0.599350
  12 H :   -0.675226
  13 O :    1.094444
  14 H :   -0.589347
  15 H :   -0.372872
  16 O :    1.121087
  17 H :   -0.684779
  18 H :   -0.395780
  19 O :    1.137368
  20 H :   -0.592417
  21 H :   -0.510398
  22 O :    1.031158
  23 H :   -0.706125
  24 H :   -0.669152
  25 O :    1.133589
  26 H :   -0.624237
  27 H :   -0.371419
  28 O :    1.106978
  29 H :   -0.435565
  30 H :   -0.402758
  31 O :    1.108997
  32 H :   -0.537680
  33 H :   -0.702813
  34 O :    1.035292
  35 H :   -0.491951

  Mayer bond orders larger than 0.100000
B(  0-H ,  1-O ) :   0.8080 B(  1-O ,  2-H ) :   0.8429 B(  3-H ,  4-O ) :   0.7449
B(  4-O ,  5-H ) :   1.0559 B(  4-O , 24-H ) :   0.1002 B(  6-H ,  7-O ) :   1.1597
B(  7-O ,  8-H ) :   0.6731 B(  7-O , 16-O ) :  -0.1202 B(  7-O , 17-H ) :   0.1490
B(  9-H , 10-O ) :   1.0062 B( 10-O , 11-H ) :   0.9098 B( 12-H , 13-O ) :   0.8964
B( 13-O , 14-H ) :   0.9621 B( 15-H , 16-O ) :   1.0056 B( 16-O , 17-H ) :   0.7172
B( 18-H , 19-O ) :   1.0777 B( 19-O , 20-H ) :   0.6887 B( 21-H , 22-O ) :   1.0523
B( 22-O , 23-H ) :   0.8016 B( 24-H , 25-O ) :   0.8268 B( 25-O , 26-H ) :   0.8677
B( 27-H , 28-O ) :   0.9773 B( 28-O , 29-H ) :   1.0262 B( 30-H , 31-O ) :   1.0239
B( 31-O , 32-H ) :   0.8469 B( 33-H , 34-O ) :   0.8008 B( 34-O , 35-H ) :   1.0680

E(0)                                       ...   -912.748195787
E(0)                                       ...   -912.748195787
E(CORR)(strong-pairs)                      ...     -3.344726895
E(CORR)(weak-pairs)                        ...     -0.003814524
E(CORR)(corrected)                         ...     -3.348541419
E(TOT)                                     ...   -916.096737206
E(CCSD(T))                                 ...   -916.207506611
FINAL SINGLE POINT ENERGY      -916.207506610657

DIPOLE MOMENT
-------------
                                X             Y             Z
Electronic contribution:      0.70092      -0.38180      -0.20339
Nuclear contribution   :      1.16995      -0.92382      -1.13552
                        -----------------------------------------
Total Dipole Moment    :      1.87086      -1.30562      -1.33891
                        -----------------------------------------
Magnitude (a.u.)       :      2.64527
Magnitude (Debye)      :      6.72374

Rotational constants in cm-1:     0.013439     0.009664     0.007557
Rotational constants in MHz :   402.901570   289.711806   226.546163

                             ****ORCA TERMINATED NORMALLY****
TOTAL RUN TIME: 0 days 2 hours 35 minutes 44 seconds 529 msec
