                         Program Version 5.0.2 -  RELEASE  -
|  1> !QM/XTB2 DLPNO-CCSD(T) aug-cc-pVTZ aug-cc-pVTZ/C TightPNO
|  2> %maxcore 2000
|  3> %pal
|  4> nprocs 28
|  5> end
|  6> %qmmm
|  7> QMAtoms {84 85 86 126 127 128 129 130 131 189 190 191 345 346 347 456 457 458 459 460 461 555 556 557 } end
|  8> ActiveAtoms {84 85 86 126 127 128 129 130 131 189 190 191 345 346 347 456 457 458 459 460 461 555 556 557 } end
|  9> end
| 10> *xyzfile 0 1 cluster_opt.xyz
| 11>
| 12>
| 13>                          ****END OF INPUT****
FINAL SINGLE POINT ENERGY (L-QM2)    -1018.341139784170
FINAL SINGLE POINT ENERGY (S-QM2)      -40.737491210160

CARTESIAN COORDINATES (ANGSTROEM)
---------------------------------
  H     -2.400537   -3.641581    1.931614
  O     -2.442063   -4.559088    2.283204
  H     -1.496412   -4.827240    2.365028
  H      0.769831   -5.017261    1.943873
  O      0.228908   -5.121150    2.753762
  H      0.446642   -6.026657    3.040575
  H     -2.055385   -8.193412    0.378910
  O     -1.715467   -7.739894    1.185510
  H     -2.503065   -7.438056    1.648211
  H     -5.425262   -5.159880    1.787567
  O     -4.739891   -5.789367    1.453720
  H     -3.889882   -5.328717    1.624471
  H     -5.607732   -8.157051   -0.798415
  O     -4.941009   -8.232565   -0.077988
  H     -4.934187   -7.364383    0.361579
  H     -2.038841   -3.005390    4.613064
  O     -2.899266   -3.464780    4.737804
  H     -2.897780   -4.083100    3.980426
  H      0.010923   -8.136512    2.570489
  O      0.831187   -7.873960    3.005872
  H      1.539083   -8.135850    2.383050
  H     -3.657010   -3.617512    7.868733
  O     -3.695622   -2.901191    7.235434
  H     -3.420726   -3.264866    6.363363

 Total Charge           Charge          ....    0
 Multiplicity           Mult            ....    1
 Number of Electrons    NEL             ....   80
 Basis Dimension        Dim             ....  736

ORBITAL ENERGIES
----------------

  NO   OCC          E(Eh)            E(eV)
   0   2.0000     -20.626764      -561.2828
   1   2.0000     -20.621353      -561.1356
   2   2.0000     -20.618556      -561.0594
   3   2.0000     -20.610640      -560.8440
   4   2.0000     -20.598696      -560.5190
   5   2.0000     -20.595141      -560.4223
   6   2.0000     -20.579344      -559.9924
   7   2.0000     -20.578320      -559.9645
   8   2.0000      -1.414728       -38.4967
   9   2.0000      -1.405983       -38.2587
  10   2.0000      -1.402478       -38.1634
  11   2.0000      -1.389893       -37.8209
  12   2.0000      -1.382776       -37.6273
  13   2.0000      -1.372808       -37.3560
  14   2.0000      -1.358925       -36.9782
  15   2.0000      -1.355058       -36.8730
  16   2.0000      -0.773853       -21.0576
  17   2.0000      -0.770064       -20.9545
  18   2.0000      -0.765297       -20.8248
  19   2.0000      -0.756713       -20.5912
  20   2.0000      -0.754003       -20.5175
  21   2.0000      -0.742803       -20.2127
  22   2.0000      -0.729852       -19.8603
  23   2.0000      -0.728141       -19.8137
  24   2.0000      -0.670502       -18.2453
  25   2.0000      -0.655195       -17.8288
  26   2.0000      -0.649967       -17.6865
  27   2.0000      -0.643423       -17.5084
  28   2.0000      -0.626126       -17.0378
  29   2.0000      -0.617033       -16.7903
  30   2.0000      -0.597818       -16.2675
  31   2.0000      -0.588700       -16.0193
  32   2.0000      -0.574800       -15.6411
  33   2.0000      -0.565655       -15.3922
  34   2.0000      -0.558470       -15.1967
  35   2.0000      -0.553068       -15.0497
  36   2.0000      -0.546643       -14.8749
  37   2.0000      -0.544252       -14.8098
  38   2.0000      -0.528965       -14.3939
  39   2.0000      -0.527025       -14.3411
  40   0.0000      -0.003435        -0.0935
  41   0.0000       0.013134         0.3574
  42   0.0000       0.017179         0.4675
  43   0.0000       0.023743         0.6461
  44   0.0000       0.034170         0.9298

MULLIKEN ATOMIC CHARGES
-----------------------
   0 H :    0.187860
   1 O :   -0.514554
   2 H :    0.352739
   3 H :    0.215499
   4 O :   -0.535636
   5 H :    0.330917
   6 H :    0.241965
   7 O :   -0.551867
   8 H :    0.304422
   9 H :    0.215410
  10 O :   -0.637742
  11 H :    0.369475
  12 H :    0.261571
  13 O :   -0.617926
  14 H :    0.358734
  15 H :    0.250143
  16 O :   -0.585194
  17 H :    0.388728
  18 H :    0.283043
  19 O :   -0.502437
  20 H :    0.252919
  21 H :    0.201931
  22 O :   -0.603448
  23 H :    0.333448
Sum of atomic charges:    0.0000000

LOEWDIN ATOMIC CHARGES
----------------------
   0 H :   -0.354354
   1 O :    1.140408
   2 H :   -0.618567
   3 H :   -0.411247
   4 O :    1.086449
   5 H :   -0.627946
   6 H :   -0.448557
   7 O :    1.029448
   8 H :   -0.521901
   9 H :   -0.402987
  10 O :    1.063411
  11 H :   -0.695731
  12 H :   -0.449515
  13 O :    0.986808
  14 H :   -0.693296
  15 H :   -0.390067
  16 O :    1.102098
  17 H :   -0.635606
  18 H :   -0.551230
  19 O :    1.071781
  20 H :   -0.420197
  21 H :   -0.514448
  22 O :    1.003744
  23 H :   -0.748496

  Mayer bond orders larger than 0.100000
B(  0-H ,  1-O ) :   1.0836 B(  1-O ,  2-H ) :   0.7866 B(  3-H ,  4-O ) :   1.0503
B(  4-O ,  5-H ) :   0.9039 B(  6-H ,  7-O ) :   1.0303 B(  7-O ,  8-H ) :   0.8949
B(  9-H , 10-O ) :   1.0163 B( 10-O , 11-H ) :   0.7933 B( 12-H , 13-O ) :   1.0207
B( 13-O , 14-H ) :   0.8534 B( 15-H , 16-O ) :   1.0270 B( 16-O , 17-H ) :   0.7804
B( 18-H , 19-O ) :   0.9373 B( 19-O , 20-H ) :   0.9968 B( 21-H , 22-O ) :   1.0761
B( 22-O , 23-H ) :   0.8450

E(0)                                       ...   -608.684051140
E(0)                                       ...   -608.684051140
E(CORR)(strong-pairs)                      ...     -2.209518161
E(CORR)(weak-pairs)                        ...     -0.001628172
E(CORR)(corrected)                         ...     -2.211146333
E(TOT)                                     ...   -610.895197473
E(CCSD(T))                                 ...   -610.965645903
FINAL SINGLE POINT ENERGY      -610.965645903056
FINAL SINGLE POINT ENERGY (QM/QM2)    -1588.569294477066

DIPOLE MOMENT
-------------
                                X             Y             Z
Electronic contribution:      0.26843      -0.37626       0.02367
Nuclear contribution   :      0.98727      -0.02787      -2.57374
                        -----------------------------------------
Total Dipole Moment    :      1.25569      -0.40412      -2.55007
                        -----------------------------------------
Magnitude (a.u.)       :      2.87105
Magnitude (Debye)      :      7.29764

Rotational constants in cm-1:     0.024009     0.014447     0.010101
Rotational constants in MHz :   719.768896   433.107576   302.827462

                             ****ORCA TERMINATED NORMALLY****
TOTAL RUN TIME: 0 days 0 hours 51 minutes 44 seconds 695 msec
