                         Program Version 5.0.2 -  RELEASE  -
|  1> #------------------------------------------------------
|  2> # After the Orca calculation you will get two inter-
|  3> # action energies at the end of the output file. The
|  4> # difference is the negative BSSE.
|  5> #
|  6> # The script will set the orbital guess PModel for
|  7> # jobs 2-5 since Orca will try to use the .gbw-files of
|  8> # the earlier calculations which does not work for jobs
|  9> # 2 and 3 and does not help for jobs 4 and 5.
| 10> #------------------------------------------------------
| 11> #
| 12> #-------------------------
| 13> #     First the dimer
| 14> #-------------------------
| 15>
| 16> %id "dimer"
| 17> ! DLPNO-CCSD(T) aug-cc-pVTZ aug-cc-pVTZ/C TightPNO
| 18> %maxcore 2000
| 19> %pal
| 20> nprocs 28
| 21> end
| 22>
| 23> * xyz 0 1
| 24> H    -2.407565    -3.607078     1.921457
| 25> O    -2.484443    -4.523313     2.273597
| 26> H    -1.551625    -4.840246     2.333444
| 27> H     0.737381    -5.026662     1.947491
| 28> O     0.187293    -5.133914     2.750237
| 29> H     0.395529    -6.047162     3.024563
| 30> H    -2.017578    -8.192353     0.427514
| 31> O    -1.630159    -7.720139     1.193529
| 32> H    -2.317993    -7.717041     1.895299
| 33> H    -5.429419    -5.093063     1.801772
| 34> O    -4.747175    -5.752587     1.506469
| 35> H    -3.883659    -5.285360     1.627844
| 36> H    -5.620404    -8.152245    -0.814749
| 37> O    -4.949427    -8.218343    -0.097822
| 38> H    -4.915398    -7.337371     0.304772
| 39> H    -2.030060    -3.007381     4.626878
| 40> O    -2.892315    -3.470209     4.729249
| 41> H    -2.890103    -4.042532     3.932998
| 42> H    -0.007106    -8.093626     2.452285
| 43> O     0.785007    -7.885424     2.970947
| 44> H     1.522449    -8.136330     2.380113
| 45> H    -3.658605    -3.623263     7.863257
| 46> O    -3.698968    -2.906001     7.231085
| 47> H    -3.429221    -3.267822     6.357627
| 48> C    -3.375202    -7.341924     4.456913
| 49> O    -3.593181    -7.695302     3.094700
| 50> H    -2.717725    -8.090539     4.889948
| 51> H    -4.205413    -7.044456     2.694995
| 52> H    -2.902424    -6.363710     4.557641
| 53> H    -4.311388    -7.341429     5.017655
| 54> *
| 55>
| 56> #--------------------------
| 57> #   Now the fragments at
| 58> #      dimer-geometry
| 59> #-------------------------
| 60>
| 61> $new_job
| 62> %id "fragment"
| 63> %scf guess PModel end
| 64> ! DLPNO-CCSD(T) aug-cc-pVTZ aug-cc-pVTZ/C TightPNO
| 65> %maxcore 2000
| 66> %pal
| 67> nprocs 28
| 68> end
| 69>
| 70> * xyz 0 1
| 71> H    -2.407565    -3.607078     1.921457
| 72> O    -2.484443    -4.523313     2.273597
| 73> H    -1.551625    -4.840246     2.333444
| 74> H     0.737381    -5.026662     1.947491
| 75> O     0.187293    -5.133914     2.750237
| 76> H     0.395529    -6.047162     3.024563
| 77> H    -2.017578    -8.192353     0.427514
| 78> O    -1.630159    -7.720139     1.193529
| 79> H    -2.317993    -7.717041     1.895299
| 80> H    -5.429419    -5.093063     1.801772
| 81> O    -4.747175    -5.752587     1.506469
| 82> H    -3.883659    -5.285360     1.627844
| 83> H    -5.620404    -8.152245    -0.814749
| 84> O    -4.949427    -8.218343    -0.097822
| 85> H    -4.915398    -7.337371     0.304772
| 86> H    -2.030060    -3.007381     4.626878
| 87> O    -2.892315    -3.470209     4.729249
| 88> H    -2.890103    -4.042532     3.932998
| 89> H    -0.007106    -8.093626     2.452285
| 90> O     0.785007    -7.885424     2.970947
| 91> H     1.522449    -8.136330     2.380113
| 92> H    -3.658605    -3.623263     7.863257
| 93> O    -3.698968    -2.906001     7.231085
| 94> H    -3.429221    -3.267822     6.357627
| 95> *
| 96>
| 97> $new_job
| 98> %id "fragment"
| 99> %scf guess PModel end
|100> ! DLPNO-CCSD(T) aug-cc-pVTZ aug-cc-pVTZ/C TightPNO
|101> %maxcore 2000
|102> %pal
|103> nprocs 6
|104> end
|105>
|106> * xyz 0 1
|107> C    -3.375202    -7.341924     4.456913
|108> O    -3.593181    -7.695302     3.094700
|109> H    -2.717725    -8.090539     4.889948
|110> H    -4.205413    -7.044456     2.694995
|111> H    -2.902424    -6.363710     4.557641
|112> H    -4.311388    -7.341429     5.017655
|113> *
|114>
|115> #--------------------------
|116> #   Now the fragments at
|117> #   dimer-geometry with
|118> #     the dimer-basis
|119> #-------------------------
|120>
|121> $new_job
|122> %id "ghost"
|123> %scf guess PModel end
|124> ! DLPNO-CCSD(T) aug-cc-pVTZ aug-cc-pVTZ/C TightPNO
|125> %maxcore 2000
|126> %pal
|127> nprocs 28
|128> end
|129>
|130> * xyz 0 1
|131> H         -2.407565    -3.607078     1.921457
|132> O         -2.484443    -4.523313     2.273597
|133> H         -1.551625    -4.840246     2.333444
|134> H          0.737381    -5.026662     1.947491
|135> O          0.187293    -5.133914     2.750237
|136> H          0.395529    -6.047162     3.024563
|137> H         -2.017578    -8.192353     0.427514
|138> O         -1.630159    -7.720139     1.193529
|139> H         -2.317993    -7.717041     1.895299
|140> H         -5.429419    -5.093063     1.801772
|141> O         -4.747175    -5.752587     1.506469
|142> H         -3.883659    -5.285360     1.627844
|143> H         -5.620404    -8.152245    -0.814749
|144> O         -4.949427    -8.218343    -0.097822
|145> H         -4.915398    -7.337371     0.304772
|146> H         -2.030060    -3.007381     4.626878
|147> O         -2.892315    -3.470209     4.729249
|148> H         -2.890103    -4.042532     3.932998
|149> H         -0.007106    -8.093626     2.452285
|150> O          0.785007    -7.885424     2.970947
|151> H          1.522449    -8.136330     2.380113
|152> H         -3.658605    -3.623263     7.863257
|153> O         -3.698968    -2.906001     7.231085
|154> H         -3.429221    -3.267822     6.357627
|155> C :       -3.375202    -7.341924     4.456913
|156> O :       -3.593181    -7.695302     3.094700
|157> H :       -2.717725    -8.090539     4.889948
|158> H :       -4.205413    -7.044456     2.694995
|159> H :       -2.902424    -6.363710     4.557641
|160> H :       -4.311388    -7.341429     5.017655
|161> *
|162>
|163> $new_job
|164> %id "ghost"
|165> %scf guess PModel end
|166> ! DLPNO-CCSD(T) aug-cc-pVTZ aug-cc-pVTZ/C TightPNO
|167> %maxcore 2000
|168> %pal
|169> nprocs 6
|170> end
|171>
|172> * xyz 0 1
|173> H :       -2.407565    -3.607078     1.921457
|174> O :       -2.484443    -4.523313     2.273597
|175> H :       -1.551625    -4.840246     2.333444
|176> H :        0.737381    -5.026662     1.947491
|177> O :        0.187293    -5.133914     2.750237
|178> H :        0.395529    -6.047162     3.024563
|179> H :       -2.017578    -8.192353     0.427514
|180> O :       -1.630159    -7.720139     1.193529
|181> H :       -2.317993    -7.717041     1.895299
|182> H :       -5.429419    -5.093063     1.801772
|183> O :       -4.747175    -5.752587     1.506469
|184> H :       -3.883659    -5.285360     1.627844
|185> H :       -5.620404    -8.152245    -0.814749
|186> O :       -4.949427    -8.218343    -0.097822
|187> H :       -4.915398    -7.337371     0.304772
|188> H :       -2.030060    -3.007381     4.626878
|189> O :       -2.892315    -3.470209     4.729249
|190> H :       -2.890103    -4.042532     3.932998
|191> H :       -0.007106    -8.093626     2.452285
|192> O :        0.785007    -7.885424     2.970947
|193> H :        1.522449    -8.136330     2.380113
|194> H :       -3.658605    -3.623263     7.863257
|195> O :       -3.698968    -2.906001     7.231085
|196> H :       -3.429221    -3.267822     6.357627
|197> C         -3.375202    -7.341924     4.456913
|198> O         -3.593181    -7.695302     3.094700
|199> H         -2.717725    -8.090539     4.889948
|200> H         -4.205413    -7.044456     2.694995
|201> H         -2.902424    -6.363710     4.557641
|202> H         -4.311388    -7.341429     5.017655
|203> *
|204>
|205>
|206>                          ****END OF INPUT****
 Total Charge           Charge          ....    0
 Multiplicity           Mult            ....    1
 Number of Electrons    NEL             ....   98
E(0)                                       ...   -723.608699028
E(0)                                       ...   -723.608699028
E(CORR)(strong-pairs)                      ...     -2.681520096
E(CORR)(weak-pairs)                        ...     -0.002638932
E(CORR)(corrected)                         ...     -2.684159028
E(TOT)                                     ...   -726.292858056
FINAL SINGLE POINT ENERGY      -726.381458109264
FINAL SINGLE POINT ENERGY      -610.798143287927
FINAL SINGLE POINT ENERGY      -115.561637926933
FINAL SINGLE POINT ENERGY      -610.799717023957

CARTESIAN COORDINATES (ANGSTROEM)
---------------------------------
  H     -2.407565   -3.607078    1.921457
  O     -2.484443   -4.523313    2.273597
  H     -1.551625   -4.840246    2.333444
  H      0.737381   -5.026662    1.947491
  O      0.187293   -5.133914    2.750237
  H      0.395529   -6.047162    3.024563
  H     -2.017578   -8.192353    0.427514
  O     -1.630159   -7.720139    1.193529
  H     -2.317993   -7.717041    1.895299
  H     -5.429419   -5.093063    1.801772
  O     -4.747175   -5.752587    1.506469
  H     -3.883659   -5.285360    1.627844
  H     -5.620404   -8.152245   -0.814749
  O     -4.949427   -8.218343   -0.097822
  H     -4.915398   -7.337371    0.304772
  H     -2.030060   -3.007381    4.626878
  O     -2.892315   -3.470209    4.729249
  H     -2.890103   -4.042532    3.932998
  H     -0.007106   -8.093626    2.452285
  O      0.785007   -7.885424    2.970947
  H      1.522449   -8.136330    2.380113
  H     -3.658605   -3.623263    7.863257
  O     -3.698968   -2.906001    7.231085
  H     -3.429221   -3.267822    6.357627
  C     -3.375202   -7.341924    4.456913
  O     -3.593181   -7.695302    3.094700
  H     -2.717725   -8.090539    4.889948
  H     -4.205413   -7.044456    2.694995
  H     -2.902424   -6.363710    4.557641
  H     -4.311388   -7.341429    5.017655

 Multiplicity           Mult            ....    1
 Number of Electrons    NEL             ....   18
 Basis Dimension        Dim             ....  920

ORBITAL ENERGIES
----------------

  NO   OCC          E(Eh)            E(eV)
   0   2.0000     -20.560396      -559.4768
   1   2.0000     -11.271084      -306.7018
   2   2.0000      -1.351628       -36.7797
   3   2.0000      -0.924925       -25.1685
   4   2.0000      -0.686256       -18.6740
   5   2.0000      -0.619794       -16.8655
   6   2.0000      -0.593380       -16.1467
   7   2.0000      -0.502611       -13.6767
   8   2.0000      -0.451231       -12.2786
   9   0.0000       0.016130         0.4389
  10   0.0000       0.027500         0.7483
  11   0.0000       0.029282         0.7968
  12   0.0000       0.034140         0.9290
  13   0.0000       0.043157         1.1744

MULLIKEN ATOMIC CHARGES
-----------------------
   0 H :   -0.001757
   1 O :    0.011274
   2 H :   -0.000928
   3 H :   -0.000122
   4 O :   -0.000317
   5 H :    0.000196
   6 H :    0.002358
   7 O :    0.015150
   8 H :    0.039769
   9 H :    0.002376
  10 O :    0.019064
  11 H :   -0.008990
  12 H :   -0.000093
  13 O :   -0.000699
  14 H :   -0.000839
  15 H :   -0.001011
  16 O :    0.001418
  17 H :   -0.004560
  18 H :   -0.001315
  19 O :    0.000148
  20 H :   -0.000029
  21 H :    0.000032
  22 O :   -0.000020
  23 H :   -0.000180
  24 C :   -0.864424
  25 O :   -0.571232
  26 H :    0.327827
  27 H :    0.260400
  28 H :    0.462234
  29 H :    0.314272
Sum of atomic charges:   -0.0000000

LOEWDIN ATOMIC CHARGES
----------------------
   0 H :   -0.000668
   1 O :   -0.011581
   2 H :   -0.004310
   3 H :   -0.000140
   4 O :   -0.001015
   5 H :   -0.000970
   6 H :   -0.007768
   7 O :   -0.028890
   8 H :   -0.239032
   9 H :   -0.006874
  10 O :   -0.057875
  11 H :   -0.026505
  12 H :   -0.000270
  13 O :   -0.004663
  14 H :   -0.009152
  15 H :   -0.000912
  16 O :   -0.007728
  17 H :   -0.018927
  18 H :   -0.002609
  19 O :   -0.001092
  20 H :   -0.000127
  21 H :   -0.000175
  22 O :   -0.000117
  23 H :   -0.000663
  24 C :    0.403433
  25 O :    0.965305
  26 H :   -0.182523
  27 H :   -0.398163
  28 H :   -0.174056
  29 H :   -0.181934

  Mayer bond orders larger than 0.100000
B( 24-C , 25-O ) :   0.9368 B( 24-C , 26-H ) :   0.9288 B( 24-C , 28-H ) :   0.7609
B( 24-C , 29-H ) :   0.9208 B( 25-O , 27-H ) :   0.8735

E(0)                                       ...   -115.091182732
E(CORR)(strong-pairs)                      ...     -0.456136962
E(CORR)(weak-pairs)                        ...     -0.000221069
E(CORR)(corrected)                         ...     -0.456358031
E(TOT)                                     ...   -115.547540763
E(CCSD(T))                                 ...   -115.562976046
FINAL SINGLE POINT ENERGY      -115.562976046248

DIPOLE MOMENT
-------------
                                X             Y             Z
Electronic contribution:     -0.17026      -0.53698      -1.65151
Nuclear contribution   :     -0.11459       1.09195       1.99535
                        -----------------------------------------
Total Dipole Moment    :     -0.28484       0.55498       0.34384
                        -----------------------------------------
Magnitude (a.u.)       :      0.71229
Magnitude (Debye)      :      1.81050

Rotational constants in cm-1:     4.273982     0.822705     0.793045
Rotational constants in MHz : 128130.765104 24664.067910 23774.885920

                             ****ORCA TERMINATED NORMALLY****
TOTAL RUN TIME: 0 days 4 hours 57 minutes 10 seconds 237 msec
