                         Program Version 5.0.2 -  RELEASE  -
|  1> !QM/XTB2 DLPNO-CCSD(T) aug-cc-pVTZ aug-cc-pVTZ/C TightPNO
|  2> %maxcore 2000
|  3> %pal
|  4> nprocs 28
|  5> end
|  6> %qmmm
|  7> QMAtoms {84 85 86 126 127 128 129 130 131 189 190 191 345 346 347 456 457 458 459 460 461 555 556 557 600 601 602 603 604 605 } end
|  8> ActiveAtoms {84 85 86 126 127 128 129 130 131 189 190 191 345 346 347 456 457 458 459 460 461 555 556 557 600 601 602 603 604 605 } end
|  9> end
| 10> *xyzfile 0 1 grain_mol_opt.xyz
| 11>
| 12>
| 13>                          ****END OF INPUT****
FINAL SINGLE POINT ENERGY (L-QM2)    -1026.589655008350
FINAL SINGLE POINT ENERGY (S-QM2)      -48.981162792020

CARTESIAN COORDINATES (ANGSTROEM)
---------------------------------
  H     -2.407565   -3.607078    1.921457
  O     -2.484443   -4.523313    2.273597
  H     -1.551625   -4.840246    2.333444
  H      0.737381   -5.026662    1.947491
  O      0.187293   -5.133914    2.750237
  H      0.395529   -6.047162    3.024563
  H     -2.017578   -8.192353    0.427514
  O     -1.630159   -7.720139    1.193529
  H     -2.317993   -7.717041    1.895299
  H     -5.429419   -5.093063    1.801772
  O     -4.747175   -5.752587    1.506469
  H     -3.883659   -5.285360    1.627844
  H     -5.620404   -8.152245   -0.814749
  O     -4.949427   -8.218343   -0.097822
  H     -4.915398   -7.337371    0.304772
  H     -2.030060   -3.007381    4.626878
  O     -2.892315   -3.470209    4.729249
  H     -2.890103   -4.042532    3.932998
  H     -0.007106   -8.093626    2.452285
  O      0.785007   -7.885424    2.970947
  H      1.522449   -8.136330    2.380113
  H     -3.658605   -3.623263    7.863257
  O     -3.698968   -2.906001    7.231085
  H     -3.429221   -3.267822    6.357627
  C     -3.375202   -7.341924    4.456913
  O     -3.593181   -7.695302    3.094700
  H     -2.717725   -8.090539    4.889948
  H     -4.205413   -7.044456    2.694995
  H     -2.902424   -6.363710    4.557641
  H     -4.311388   -7.341429    5.017655

 Total Charge           Charge          ....    0
 Multiplicity           Mult            ....    1
 Number of Electrons    NEL             ....   98
 Basis Dimension        Dim             ....  920

ORBITAL ENERGIES
----------------

  NO   OCC          E(Eh)            E(eV)
   0   2.0000     -20.623237      -561.1868
   1   2.0000     -20.617021      -561.0177
   2   2.0000     -20.610161      -560.8310
   3   2.0000     -20.602132      -560.6125
   4   2.0000     -20.599703      -560.5464
   5   2.0000     -20.593729      -560.3838
   6   2.0000     -20.585155      -560.1505
   7   2.0000     -20.583627      -560.1090
   8   2.0000     -20.578278      -559.9634
   9   2.0000     -11.295875      -307.3764
  10   2.0000      -1.417753       -38.5790
  11   2.0000      -1.400825       -38.1184
  12   2.0000      -1.394984       -37.9594
  13   2.0000      -1.386539       -37.7296
  14   2.0000      -1.381277       -37.5865
  15   2.0000      -1.380328       -37.5606
  16   2.0000      -1.368764       -37.2460
  17   2.0000      -1.364042       -37.1175
  18   2.0000      -1.355593       -36.8876
  19   2.0000      -0.953396       -25.9432
  20   2.0000      -0.776775       -21.1371
  21   2.0000      -0.762460       -20.7476
  22   2.0000      -0.762214       -20.7409
  23   2.0000      -0.759647       -20.6711
  24   2.0000      -0.752230       -20.4692
  25   2.0000      -0.740161       -20.1408
  26   2.0000      -0.734056       -19.9747
  27   2.0000      -0.730163       -19.8687
  28   2.0000      -0.717626       -19.5276
  29   2.0000      -0.672333       -18.2951
  30   2.0000      -0.654192       -17.8015
  31   2.0000      -0.650560       -17.7026
  32   2.0000      -0.648553       -17.6480
  33   2.0000      -0.637519       -17.3478
  34   2.0000      -0.624828       -17.0024
  35   2.0000      -0.617743       -16.8096
  36   2.0000      -0.604495       -16.4491
  37   2.0000      -0.601860       -16.3775
  38   2.0000      -0.593523       -16.1506
  39   2.0000      -0.568277       -15.4636
  40   2.0000      -0.562908       -15.3175
  41   2.0000      -0.561729       -15.2854
  42   2.0000      -0.550878       -14.9901
  43   2.0000      -0.543086       -14.7781
  44   2.0000      -0.542704       -14.7677
  45   2.0000      -0.534189       -14.5360
  46   2.0000      -0.526532       -14.3277
  47   2.0000      -0.522396       -14.2151
  48   2.0000      -0.480974       -13.0880
  49   0.0000      -0.002425        -0.0660
  50   0.0000       0.013802         0.3756
  51   0.0000       0.018412         0.5010
  52   0.0000       0.021027         0.5722
  53   0.0000       0.033758         0.9186

MULLIKEN ATOMIC CHARGES
-----------------------
   0 H :    0.171226
   1 O :   -0.590528
   2 H :    0.426445
   3 H :    0.197200
   4 O :   -0.532256
   5 H :    0.336185
   6 H :    0.147183
   7 O :   -0.587825
   8 H :    0.444448
   9 H :    0.163188
  10 O :   -0.626108
  11 H :    0.433086
  12 H :    0.244987
  13 O :   -0.606807
  14 H :    0.379003
  15 H :    0.217920
  16 O :   -0.617771
  17 H :    0.504535
  18 H :    0.313250
  19 O :   -0.508463
  20 H :    0.221990
  21 H :    0.198010
  22 O :   -0.608871
  23 H :    0.341733
  24 C :   -0.848888
  25 O :   -0.612607
  26 H :    0.330307
  27 H :    0.308370
  28 H :    0.435641
  29 H :    0.325417
Sum of atomic charges:    0.0000000

LOEWDIN ATOMIC CHARGES
----------------------
   0 H :   -0.340125
   1 O :    1.155390
   2 H :   -0.595019
   3 H :   -0.413735
   4 O :    1.083919
   5 H :   -0.631104
   6 H :   -0.451581
   7 O :    1.041910
   8 H :   -0.699143
   9 H :   -0.363421
  10 O :    1.097627
  11 H :   -0.664288
  12 H :   -0.447875
  13 O :    0.996194
  14 H :   -0.666971
  15 H :   -0.384482
  16 O :    1.104606
  17 H :   -0.670903
  18 H :   -0.586575
  19 O :    1.074079
  20 H :   -0.421404
  21 H :   -0.513909
  22 O :    1.006792
  23 H :   -0.746547
  24 C :    0.374598
  25 O :    0.853459
  26 H :   -0.185845
  27 H :   -0.625157
  28 H :   -0.203937
  29 H :   -0.176552

  Mayer bond orders larger than 0.100000
B(  0-H ,  1-O ) :   1.0835 B(  1-O ,  2-H ) :   0.6912 B(  1-O , 10-O ) :  -0.1313
B(  3-H ,  4-O ) :   1.0677 B(  4-O ,  5-H ) :   0.8776 B(  6-H ,  7-O ) :   1.1305
B(  7-O ,  8-H ) :   0.7731 B(  9-H , 10-O ) :   1.0818 B( 10-O , 11-H ) :   0.6346
B( 12-H , 13-O ) :   1.0542 B( 13-O , 14-H ) :   0.8060 B( 15-H , 16-O ) :   1.0782
B( 16-O , 17-H ) :   0.5916 B( 18-H , 19-O ) :   0.8709 B( 19-O , 20-H ) :   1.0314
B( 21-H , 22-O ) :   1.0837 B( 22-O , 23-H ) :   0.8284 B( 24-C , 25-O ) :   0.9331
B( 24-C , 26-H ) :   0.9263 B( 24-C , 28-H ) :   0.7762 B( 24-C , 29-H ) :   0.9202
B( 25-O , 27-H ) :   0.7710

E(0)                                       ...   -723.784187502
E(0)                                       ...   -723.784187502
E(CORR)(strong-pairs)                      ...     -2.675773259
E(CORR)(weak-pairs)                        ...     -0.002653642
E(CORR)(corrected)                         ...     -2.678426901
E(TOT)                                     ...   -726.462614403
E(CCSD(T))                                 ...   -726.550350980
FINAL SINGLE POINT ENERGY      -726.550350980415
FINAL SINGLE POINT ENERGY (QM/QM2)    -1704.158843196746

DIPOLE MOMENT
-------------
                                X             Y             Z
Electronic contribution:      0.09758      -0.18468      -1.87110
Nuclear contribution   :      0.65652       0.28982      -0.21210
                        -----------------------------------------
Total Dipole Moment    :      0.75409       0.10514      -2.08320
                        -----------------------------------------
Magnitude (a.u.)       :      2.21798
Magnitude (Debye)      :      5.63766

Rotational constants in cm-1:     0.020080     0.012876     0.009933
Rotational constants in MHz :   601.990750   386.000374   297.779187

                             ****ORCA TERMINATED NORMALLY****
TOTAL RUN TIME: 0 days 1 hours 3 minutes 17 seconds 857 msec
