                         Program Version 5.0.2 -  RELEASE  -
|  1> ! DLPNO-CCSD(T) aug-cc-pVTZ aug-cc-pVTZ/C TightPNO
|  2> %maxcore 500
|  3> %pal
|  4> nprocs 7
|  5> end
|  6> *xyzfile 0 1 mol_inp.xyz
|  7>
|  8>
|  9>                          ****END OF INPUT****

CARTESIAN COORDINATES (ANGSTROEM)
---------------------------------
  C     -3.375202   -7.341924    4.456913
  O     -3.593181   -7.695302    3.094700
  H     -2.717725   -8.090539    4.889948
  H     -4.205413   -7.044456    2.694995
  H     -2.902424   -6.363710    4.557641
  H     -4.311388   -7.341429    5.017655

 Total Charge           Charge          ....    0
 Multiplicity           Mult            ....    1
 Number of Electrons    NEL             ....   18
 Basis Dimension        Dim             ....  184

ORBITAL ENERGIES
----------------

  NO   OCC          E(Eh)            E(eV)
   0   2.0000     -20.560515      -559.4801
   1   2.0000     -11.271074      -306.7015
   2   2.0000      -1.351715       -36.7820
   3   2.0000      -0.924961       -25.1695
   4   2.0000      -0.686320       -18.6757
   5   2.0000      -0.619809       -16.8658
   6   2.0000      -0.593422       -16.1478
   7   2.0000      -0.502654       -13.6779
   8   2.0000      -0.451244       -12.2790
   9   0.0000       0.028440         0.7739
  10   0.0000       0.042765         1.1637
  11   0.0000       0.046677         1.2701
  12   0.0000       0.053051         1.4436
  13   0.0000       0.098748         2.6871

MULLIKEN ATOMIC CHARGES
-----------------------
   0 C :   -0.625170
   1 O :   -0.518235
   2 H :    0.325277
   3 H :    0.208663
   4 H :    0.304260
   5 H :    0.305205
Sum of atomic charges:   -0.0000000

LOEWDIN ATOMIC CHARGES
----------------------
   0 C :    0.319674
   1 O :    0.750724
   2 H :   -0.199499
   3 H :   -0.482717
   4 H :   -0.193516
   5 H :   -0.194666

  Mayer bond orders larger than 0.100000
B(  0-C ,  1-O ) :   0.8215 B(  0-C ,  2-H ) :   0.9044 B(  0-C ,  4-H ) :   0.9029
B(  0-C ,  5-H ) :   0.9022 B(  1-O ,  3-H ) :   0.9757

E(0)                                       ...   -115.090966914
E(0)                                       ...   -115.090966914
E(CORR)(strong-pairs)                      ...     -0.455102682
E(CORR)(weak-pairs)                        ...     -0.000200539
E(CORR)(corrected)                         ...     -0.455303220
E(TOT)                                     ...   -115.546270134
E(CCSD(T))                                 ...   -115.561637927
FINAL SINGLE POINT ENERGY      -115.561637926933

DIPOLE MOMENT
-------------
                                X             Y             Z
Electronic contribution:     -0.17021      -0.53665      -1.65122
Nuclear contribution   :     -0.11459       1.09195       1.99535
                        -----------------------------------------
Total Dipole Moment    :     -0.28480       0.55531       0.34413
                        -----------------------------------------
Magnitude (a.u.)       :      0.71267
Magnitude (Debye)      :      1.81146

Rotational constants in cm-1:     4.273982     0.822705     0.793045
Rotational constants in MHz : 128130.765104 24664.067910 23774.885920

                             ****ORCA TERMINATED NORMALLY****
TOTAL RUN TIME: 0 days 0 hours 1 minutes 24 seconds 150 msec
