                         Program Version 5.0.2 -  RELEASE  -
|  1> !QM/XTB2 DLPNO-CCSD(T) aug-cc-pVTZ aug-cc-pVTZ/C TightPNO
|  2> %maxcore 2000
|  3> %pal
|  4> nprocs 28
|  5> end
|  6> %qmmm
|  7> QMAtoms {84 85 86 126 127 128 129 130 131 189 190 191 345 346 347 456 457 458 459 460 461 555 556 557 } end
|  8> ActiveAtoms {84 85 86 126 127 128 129 130 131 189 190 191 345 346 347 456 457 458 459 460 461 555 556 557 } end
|  9> end
| 10> *xyzfile 0 1 surf_inp.xyz
| 11>
| 12>
| 13>                          ****END OF INPUT****
FINAL SINGLE POINT ENERGY (L-QM2)    -1018.337696976970
FINAL SINGLE POINT ENERGY (S-QM2)      -40.735310075290

CARTESIAN COORDINATES (ANGSTROEM)
---------------------------------
  H     -2.407565   -3.607078    1.921457
  O     -2.484443   -4.523313    2.273597
  H     -1.551625   -4.840246    2.333444
  H      0.737381   -5.026662    1.947491
  O      0.187293   -5.133914    2.750237
  H      0.395529   -6.047162    3.024563
  H     -2.017578   -8.192353    0.427514
  O     -1.630159   -7.720139    1.193529
  H     -2.317993   -7.717041    1.895299
  H     -5.429419   -5.093063    1.801772
  O     -4.747175   -5.752587    1.506469
  H     -3.883659   -5.285360    1.627844
  H     -5.620404   -8.152245   -0.814749
  O     -4.949427   -8.218343   -0.097822
  H     -4.915398   -7.337371    0.304772
  H     -2.030060   -3.007381    4.626878
  O     -2.892315   -3.470209    4.729249
  H     -2.890103   -4.042532    3.932998
  H     -0.007106   -8.093626    2.452285
  O      0.785007   -7.885424    2.970947
  H      1.522449   -8.136330    2.380113
  H     -3.658605   -3.623263    7.863257
  O     -3.698968   -2.906001    7.231085
  H     -3.429221   -3.267822    6.357627

 Total Charge           Charge          ....    0
 Multiplicity           Mult            ....    1
 Number of Electrons    NEL             ....   80
 Basis Dimension        Dim             ....  736

ORBITAL ENERGIES
----------------

  NO   OCC          E(Eh)            E(eV)
   0   2.0000     -20.636856      -561.5574
   1   2.0000     -20.620934      -561.1241
   2   2.0000     -20.618745      -561.0646
   3   2.0000     -20.610100      -560.8293
   4   2.0000     -20.595327      -560.4273
   5   2.0000     -20.584537      -560.1337
   6   2.0000     -20.578839      -559.9787
   7   2.0000     -20.578375      -559.9660
   8   2.0000      -1.415081       -38.5063
   9   2.0000      -1.411238       -38.4018
  10   2.0000      -1.402323       -38.1591
  11   2.0000      -1.389011       -37.7969
  12   2.0000      -1.379296       -37.5326
  13   2.0000      -1.361419       -37.0461
  14   2.0000      -1.358453       -36.9654
  15   2.0000      -1.352927       -36.8150
  16   2.0000      -0.780048       -21.2262
  17   2.0000      -0.771651       -20.9977
  18   2.0000      -0.764576       -20.8052
  19   2.0000      -0.755816       -20.5668
  20   2.0000      -0.751179       -20.4406
  21   2.0000      -0.736081       -20.0298
  22   2.0000      -0.726803       -19.7773
  23   2.0000      -0.725176       -19.7331
  24   2.0000      -0.668266       -18.1844
  25   2.0000      -0.661003       -17.9868
  26   2.0000      -0.648844       -17.6559
  27   2.0000      -0.640761       -17.4360
  28   2.0000      -0.627231       -17.0678
  29   2.0000      -0.611436       -16.6380
  30   2.0000      -0.597682       -16.2638
  31   2.0000      -0.585409       -15.9298
  32   2.0000      -0.581733       -15.8298
  33   2.0000      -0.564707       -15.3665
  34   2.0000      -0.554805       -15.0970
  35   2.0000      -0.552151       -15.0248
  36   2.0000      -0.543131       -14.7793
  37   2.0000      -0.534310       -14.5393
  38   2.0000      -0.528897       -14.3920
  39   2.0000      -0.526030       -14.3140
  40   0.0000      -0.003513        -0.0956
  41   0.0000       0.012439         0.3385
  42   0.0000       0.016550         0.4503
  43   0.0000       0.023077         0.6280
  44   0.0000       0.033991         0.9250

MULLIKEN ATOMIC CHARGES
-----------------------
   0 H :    0.183241
   1 O :   -0.478965
   2 H :    0.347004
   3 H :    0.217687
   4 O :   -0.541813
   5 H :    0.331268
   6 H :    0.203003
   7 O :   -0.496122
   8 H :    0.284225
   9 H :    0.213496
  10 O :   -0.659355
  11 H :    0.364761
  12 H :    0.257593
  13 O :   -0.612949
  14 H :    0.368795
  15 H :    0.244396
  16 O :   -0.589576
  17 H :    0.391739
  18 H :    0.301845
  19 O :   -0.507989
  20 H :    0.242637
  21 H :    0.201971
  22 O :   -0.602628
  23 H :    0.335733
Sum of atomic charges:    0.0000000

LOEWDIN ATOMIC CHARGES
----------------------
   0 H :   -0.343841
   1 O :    1.148368
   2 H :   -0.600171
   3 H :   -0.414827
   4 O :    1.083210
   5 H :   -0.630972
   6 H :   -0.458066
   7 O :    1.018535
   8 H :   -0.446700
   9 H :   -0.407080
  10 O :    1.037876
  11 H :   -0.711448
  12 H :   -0.450150
  13 O :    0.986141
  14 H :   -0.677370
  15 H :   -0.390198
  16 O :    1.100287
  17 H :   -0.654241
  18 H :   -0.586587
  19 O :    1.074642
  20 H :   -0.420961
  21 H :   -0.513992
  22 O :    1.004542
  23 H :   -0.746998

  Mayer bond orders larger than 0.100000
B(  0-H ,  1-O ) :   1.0806 B(  1-O ,  2-H ) :   0.8072 B(  3-H ,  4-O ) :   1.0488
B(  4-O ,  5-H ) :   0.8982 B(  6-H ,  7-O ) :   1.0576 B(  7-O ,  8-H ) :   0.9336
B(  9-H , 10-O ) :   1.0184 B( 10-O , 11-H ) :   0.7958 B( 12-H , 13-O ) :   1.0277
B( 13-O , 14-H ) :   0.8469 B( 15-H , 16-O ) :   1.0328 B( 16-O , 17-H ) :   0.7677
B( 18-H , 19-O ) :   0.9084 B( 19-O , 20-H ) :   1.0098 B( 21-H , 22-O ) :   1.0758
B( 22-O , 23-H ) :   0.8457

E(0)                                       ...   -608.679833172
E(0)                                       ...   -608.679833172
E(CORR)(strong-pairs)                      ...     -2.211068808
E(CORR)(weak-pairs)                        ...     -0.001636305
E(CORR)(corrected)                         ...     -2.212705113
E(TOT)                                     ...   -610.892538285
E(CCSD(T))                                 ...   -610.963233774
FINAL SINGLE POINT ENERGY      -610.963233773926
FINAL SINGLE POINT ENERGY (QM/QM2)    -1588.565620675606

DIPOLE MOMENT
-------------
                                X             Y             Z
Electronic contribution:      0.24729      -0.37249      -0.02568
Nuclear contribution   :      1.12951      -0.20782      -2.52373
                        -----------------------------------------
Total Dipole Moment    :      1.37680      -0.58031      -2.54941
                        -----------------------------------------
Magnitude (a.u.)       :      2.95496
Magnitude (Debye)      :      7.51092

Rotational constants in cm-1:     0.024200     0.014484     0.010153
Rotational constants in MHz :   725.493150   434.217185   304.373521

                             ****ORCA TERMINATED NORMALLY****
TOTAL RUN TIME: 0 days 0 hours 56 minutes 16 seconds 649 msec
