                         Program Version 5.0.1 -  RELEASE  -
|  1> !QM/XTB2 DLPNO-CCSD(T) aug-cc-pVTZ aug-cc-pVTZ/C TightPNO
|  2> %maxcore 2000
|  3> %pal
|  4> nprocs 24
|  5> end
|  6> %qmmm
|  7> QMAtoms {45 46 47 108 109 110 177 178 179 264 265 266 321 322 323 324 325 326 363 364 365 390 391 392 471 472 473 } end
|  8> ActiveAtoms {45 46 47 108 109 110 177 178 179 264 265 266 321 322 323 324 325 326 363 364 365 390 391 392 471 472 473 } end
|  9> end
| 10> *xyzfile 0 1 cluster_opt.xyz
| 11>
| 12>
| 13>                          ****END OF INPUT****
FINAL SINGLE POINT ENERGY (L-QM2)    -1018.341285816490
FINAL SINGLE POINT ENERGY (S-QM2)      -45.826046729200

CARTESIAN COORDINATES (ANGSTROEM)
---------------------------------
  H     -3.429251    6.415339   -0.497450
  O     -3.258047    7.070603   -1.224638
  H     -3.113660    7.938939   -0.809671
  H     -3.148929    4.916942    1.110837
  O     -3.903489    5.318522    0.633262
  H     -4.341588    5.821738    1.368375
  H     -0.679798    6.309070    5.087709
  O     -1.297731    6.877908    5.615264
  H     -1.274039    7.767051    5.185726
  H     -1.770090    9.674903   -0.762521
  O     -2.617075    9.544103   -0.257807
  H     -3.204579   10.233465   -0.582857
  H     -2.286355    8.765478    1.317398
  O     -2.165789    8.153221    2.066537
  H     -1.389260    7.604570    1.840047
  H     -4.460593    6.378507    3.528814
  O     -4.625632    6.819080    2.673367
  H     -3.817840    7.345977    2.538294
  H     -1.773039    9.018472    3.565766
  O     -1.535286    9.307715    4.473051
  H     -2.391724    9.354441    4.939641
  H     -3.786294    5.295518    5.843012
  O     -3.799988    6.063703    5.240471
  H     -2.843501    6.323166    5.266773
  H     -4.048024    8.983918    6.767842
  O     -4.030143    8.827430    5.819362
  H     -4.116651    7.855738    5.733956

 Total Charge           Charge          ....    0
 Multiplicity           Mult            ....    1
 Number of Electrons    NEL             ....   90
 Basis Dimension        Dim             ....  828

ORBITAL ENERGIES
----------------

  NO   OCC          E(Eh)            E(eV)
   0   2.0000     -20.625050      -561.2361
   1   2.0000     -20.598508      -560.5139
   2   2.0000     -20.592595      -560.3530
   3   2.0000     -20.581752      -560.0580
   4   2.0000     -20.581307      -560.0458
   5   2.0000     -20.571494      -559.7788
   6   2.0000     -20.566326      -559.6382
   7   2.0000     -20.565174      -559.6068
   8   2.0000     -20.560731      -559.4859
   9   2.0000      -1.411397       -38.4061
  10   2.0000      -1.388996       -37.7965
  11   2.0000      -1.383375       -37.6436
  12   2.0000      -1.376227       -37.4490
  13   2.0000      -1.364967       -37.1426
  14   2.0000      -1.357767       -36.9467
  15   2.0000      -1.349133       -36.7118
  16   2.0000      -1.344443       -36.5841
  17   2.0000      -1.340247       -36.4700
  18   2.0000      -0.772483       -21.0203
  19   2.0000      -0.755159       -20.5489
  20   2.0000      -0.745519       -20.2866
  21   2.0000      -0.744117       -20.2485
  22   2.0000      -0.739358       -20.1189
  23   2.0000      -0.731886       -19.9156
  24   2.0000      -0.724533       -19.7156
  25   2.0000      -0.716697       -19.5023
  26   2.0000      -0.714306       -19.4372
  27   2.0000      -0.663638       -18.0585
  28   2.0000      -0.649573       -17.6758
  29   2.0000      -0.639282       -17.3957
  30   2.0000      -0.622156       -16.9297
  31   2.0000      -0.613654       -16.6984
  32   2.0000      -0.604728       -16.4555
  33   2.0000      -0.595737       -16.2108
  34   2.0000      -0.592289       -16.1170
  35   2.0000      -0.571705       -15.5569
  36   2.0000      -0.560633       -15.2556
  37   2.0000      -0.540188       -14.6993
  38   2.0000      -0.534529       -14.5453
  39   2.0000      -0.527202       -14.3459
  40   2.0000      -0.524991       -14.2857
  41   2.0000      -0.522037       -14.2054
  42   2.0000      -0.518819       -14.1178
  43   2.0000      -0.508413       -13.8346
  44   2.0000      -0.503409       -13.6984
  45   0.0000       0.012560         0.3418
  46   0.0000       0.021645         0.5890
  47   0.0000       0.031452         0.8559
  48   0.0000       0.039716         1.0807
  49   0.0000       0.042751         1.1633

MULLIKEN ATOMIC CHARGES
-----------------------
   0 H :    0.317867
   1 O :   -0.720590
   2 H :    0.276971
   3 H :    0.200209
   4 O :   -0.532016
   5 H :    0.346554
   6 H :    0.203691
   7 O :   -0.521015
   8 H :    0.331041
   9 H :    0.235086
  10 O :   -0.395098
  11 H :    0.182124
  12 H :    0.333753
  13 O :   -0.440038
  14 H :    0.164523
  15 H :    0.285755
  16 O :   -0.628853
  17 H :    0.416849
  18 H :    0.341807
  19 O :   -0.627298
  20 H :    0.314739
  21 H :    0.158041
  22 O :   -0.599919
  23 H :    0.363799
  24 H :    0.184835
  25 O :   -0.551186
  26 H :    0.358369
Sum of atomic charges:   -0.0000000

LOEWDIN ATOMIC CHARGES
----------------------
   0 H :   -0.755276
   1 O :    0.999952
   2 H :   -0.738482
   3 H :   -0.404060
   4 O :    1.090038
   5 H :   -0.680820
   6 H :   -0.372459
   7 O :    1.084044
   8 H :   -0.682199
   9 H :   -0.330490
  10 O :    1.142520
  11 H :   -0.405042
  12 H :   -0.617640
  13 O :    1.159894
  14 H :   -0.366743
  15 H :   -0.605575
  16 O :    1.141749
  17 H :   -0.599555
  18 H :   -0.649367
  19 O :    1.109430
  20 H :   -0.590561
  21 H :   -0.393493
  22 O :    1.125830
  23 H :   -0.676998
  24 H :   -0.459683
  25 O :    1.095704
  26 H :   -0.620721

  Mayer bond orders larger than 0.100000
B(  0-H ,  1-O ) :   0.8999 B(  0-H ,  4-O ) :   0.1066 B(  1-O ,  2-H ) :   0.9506
B(  3-H ,  4-O ) :   1.0708 B(  4-O ,  5-H ) :   0.7847 B(  4-O , 16-O ) :  -0.1277
B(  5-H , 16-O ) :   0.1015 B(  6-H ,  7-O ) :   1.0713 B(  7-O ,  8-H ) :   0.7826
B(  7-O , 23-H ) :   0.1175 B(  8-H , 19-O ) :   0.1005 B(  9-H , 10-O ) :   1.0178
B( 10-O , 11-H ) :   1.0229 B( 12-H , 13-O ) :   0.8986 B( 13-O , 14-H ) :   1.0745
B( 15-H , 16-O ) :   0.9369 B( 16-O , 17-H ) :   0.6999 B( 18-H , 19-O ) :   0.8221
B( 19-O , 20-H ) :   0.9075 B( 21-H , 22-O ) :   1.0413 B( 22-O , 23-H ) :   0.7160
B( 24-H , 25-O ) :   1.0475 B( 25-O , 26-H ) :   0.8223

E(0)                                       ...   -684.723324711
E(0)                                       ...   -684.723324711
E(CORR)(strong-pairs)                      ...     -2.502973222
E(CORR)(weak-pairs)                        ...     -0.002397921
E(CORR)(corrected)                         ...     -2.505371142
E(TOT)                                     ...   -687.228695853
E(CCSD(T))                                 ...   -687.311089860
FINAL SINGLE POINT ENERGY      -687.311089859867
FINAL SINGLE POINT ENERGY (QM/QM2)    -1659.826328947157

DIPOLE MOMENT
-------------
                                X             Y             Z
Electronic contribution:     -0.11786       0.49691       0.22499
Nuclear contribution   :      2.15677       0.03218       1.13530
                        -----------------------------------------
Total Dipole Moment    :      2.03891       0.52909       1.36029
                        -----------------------------------------
Magnitude (a.u.)       :      2.50749
Magnitude (Debye)      :      6.37352

Rotational constants in cm-1:     0.032572     0.014491     0.012033
Rotational constants in MHz :   976.496122   434.418819   360.744038

                             ****ORCA TERMINATED NORMALLY****
TOTAL RUN TIME: 0 days 0 hours 44 minutes 7 seconds 280 msec
