                         Program Version 5.0.1 -  RELEASE  -
|  1> #------------------------------------------------------
|  2> # After the Orca calculation you will get two inter-
|  3> # action energies at the end of the output file. The
|  4> # difference is the negative BSSE.
|  5> #
|  6> # The script will set the orbital guess PModel for
|  7> # jobs 2-5 since Orca will try to use the .gbw-files of
|  8> # the earlier calculations which does not work for jobs
|  9> # 2 and 3 and does not help for jobs 4 and 5.
| 10> #------------------------------------------------------
| 11> #
| 12> #-------------------------
| 13> #     First the dimer
| 14> #-------------------------
| 15>
| 16> %id "dimer"
| 17> ! DLPNO-CCSD(T) aug-cc-pVTZ aug-cc-pVTZ/C TightPNO
| 18> %maxcore 2000
| 19> %pal
| 20> nprocs 24
| 21> end
| 22>
| 23> * xyz 0 1
| 24> H    -3.443235     6.434413    -0.504000
| 25> O    -3.271685     7.084807    -1.230295
| 26> H    -3.161553     7.963534    -0.826568
| 27> H    -3.164809     4.919460     1.110722
| 28> O    -3.919989     5.319764     0.633197
| 29> H    -4.366159     5.812195     1.362342
| 30> H    -0.682080     6.306713     5.076776
| 31> O    -1.295406     6.880480     5.606853
| 32> H    -1.275444     7.764121     5.165067
| 33> H    -1.795517     9.694788    -0.741253
| 34> O    -2.614221     9.521136    -0.208755
| 35> H    -3.175160     10.293579    -0.322272
| 36> H    -2.306709     8.721835     1.321014
| 37> O    -2.167145     8.083444     2.050273
| 38> H    -1.370696     7.570353     1.808332
| 39> H    -4.391280     6.394408     3.573568
| 40> O    -4.543337     6.835331     2.712800
| 41> H    -3.679109     7.260003     2.521458
| 42> H    -1.772171     8.975016     3.511879
| 43> O    -1.523132     9.283759     4.411862
| 44> H    -2.373779     9.382569     4.871546
| 45> H    -3.782438     5.305952     5.851479
| 46> O    -3.790202     6.088514     5.266701
| 47> H    -2.829598     6.345314     5.302956
| 48> H    -4.178585     9.037329     6.694452
| 49> O    -4.085999     8.842011     5.757539
| 50> H    -4.148955     7.864689     5.702885
| 51> O    -5.148706     9.668114     2.922701
| 52> H    -4.961285     9.791795     3.860486
| 53> H    -5.216163     8.702068     2.854049
| 54> *
| 55>
| 56> #--------------------------
| 57> #   Now the fragments at
| 58> #      dimer-geometry
| 59> #-------------------------
| 60>
| 61> $new_job
| 62> %id "fragment"
| 63> %scf guess PModel end
| 64> ! DLPNO-CCSD(T) aug-cc-pVTZ aug-cc-pVTZ/C TightPNO
| 65> %maxcore 2000
| 66> %pal
| 67> nprocs 24
| 68> end
| 69>
| 70> * xyz 0 1
| 71> H    -3.443235     6.434413    -0.504000
| 72> O    -3.271685     7.084807    -1.230295
| 73> H    -3.161553     7.963534    -0.826568
| 74> H    -3.164809     4.919460     1.110722
| 75> O    -3.919989     5.319764     0.633197
| 76> H    -4.366159     5.812195     1.362342
| 77> H    -0.682080     6.306713     5.076776
| 78> O    -1.295406     6.880480     5.606853
| 79> H    -1.275444     7.764121     5.165067
| 80> H    -1.795517     9.694788    -0.741253
| 81> O    -2.614221     9.521136    -0.208755
| 82> H    -3.175160     10.293579    -0.322272
| 83> H    -2.306709     8.721835     1.321014
| 84> O    -2.167145     8.083444     2.050273
| 85> H    -1.370696     7.570353     1.808332
| 86> H    -4.391280     6.394408     3.573568
| 87> O    -4.543337     6.835331     2.712800
| 88> H    -3.679109     7.260003     2.521458
| 89> H    -1.772171     8.975016     3.511879
| 90> O    -1.523132     9.283759     4.411862
| 91> H    -2.373779     9.382569     4.871546
| 92> H    -3.782438     5.305952     5.851479
| 93> O    -3.790202     6.088514     5.266701
| 94> H    -2.829598     6.345314     5.302956
| 95> H    -4.178585     9.037329     6.694452
| 96> O    -4.085999     8.842011     5.757539
| 97> H    -4.148955     7.864689     5.702885
| 98> *
| 99>
|100> $new_job
|101> %id "fragment"
|102> %scf guess PModel end
|103> ! DLPNO-CCSD(T) aug-cc-pVTZ aug-cc-pVTZ/C TightPNO
|104> %maxcore 2000
|105> %pal
|106> nprocs 6
|107> end
|108>
|109> * xyz 0 1
|110> O    -5.148706     9.668114     2.922701
|111> H    -4.961285     9.791795     3.860486
|112> H    -5.216163     8.702068     2.854049
|113> *
|114>
|115> #--------------------------
|116> #   Now the fragments at
|117> #   dimer-geometry with
|118> #     the dimer-basis
|119> #-------------------------
|120>
|121> $new_job
|122> %id "ghost"
|123> %scf guess PModel end
|124> ! DLPNO-CCSD(T) aug-cc-pVTZ aug-cc-pVTZ/C TightPNO
|125> %maxcore 2000
|126> %pal
|127> nprocs 24
|128> end
|129>
|130> * xyz 0 1
|131> H         -3.443235     6.434413    -0.504000
|132> O         -3.271685     7.084807    -1.230295
|133> H         -3.161553     7.963534    -0.826568
|134> H         -3.164809     4.919460     1.110722
|135> O         -3.919989     5.319764     0.633197
|136> H         -4.366159     5.812195     1.362342
|137> H         -0.682080     6.306713     5.076776
|138> O         -1.295406     6.880480     5.606853
|139> H         -1.275444     7.764121     5.165067
|140> H         -1.795517     9.694788    -0.741253
|141> O         -2.614221     9.521136    -0.208755
|142> H         -3.175160     10.293579    -0.322272
|143> H         -2.306709     8.721835     1.321014
|144> O         -2.167145     8.083444     2.050273
|145> H         -1.370696     7.570353     1.808332
|146> H         -4.391280     6.394408     3.573568
|147> O         -4.543337     6.835331     2.712800
|148> H         -3.679109     7.260003     2.521458
|149> H         -1.772171     8.975016     3.511879
|150> O         -1.523132     9.283759     4.411862
|151> H         -2.373779     9.382569     4.871546
|152> H         -3.782438     5.305952     5.851479
|153> O         -3.790202     6.088514     5.266701
|154> H         -2.829598     6.345314     5.302956
|155> H         -4.178585     9.037329     6.694452
|156> O         -4.085999     8.842011     5.757539
|157> H         -4.148955     7.864689     5.702885
|158> O :       -5.148706     9.668114     2.922701
|159> H :       -4.961285     9.791795     3.860486
|160> H :       -5.216163     8.702068     2.854049
|161> *
|162>
|163> $new_job
|164> %id "ghost"
|165> %scf guess PModel end
|166> ! DLPNO-CCSD(T) aug-cc-pVTZ aug-cc-pVTZ/C TightPNO
|167> %maxcore 2000
|168> %pal
|169> nprocs 6
|170> end
|171>
|172> * xyz 0 1
|173> H :       -3.443235     6.434413    -0.504000
|174> O :       -3.271685     7.084807    -1.230295
|175> H :       -3.161553     7.963534    -0.826568
|176> H :       -3.164809     4.919460     1.110722
|177> O :       -3.919989     5.319764     0.633197
|178> H :       -4.366159     5.812195     1.362342
|179> H :       -0.682080     6.306713     5.076776
|180> O :       -1.295406     6.880480     5.606853
|181> H :       -1.275444     7.764121     5.165067
|182> H :       -1.795517     9.694788    -0.741253
|183> O :       -2.614221     9.521136    -0.208755
|184> H :       -3.175160     10.293579    -0.322272
|185> H :       -2.306709     8.721835     1.321014
|186> O :       -2.167145     8.083444     2.050273
|187> H :       -1.370696     7.570353     1.808332
|188> H :       -4.391280     6.394408     3.573568
|189> O :       -4.543337     6.835331     2.712800
|190> H :       -3.679109     7.260003     2.521458
|191> H :       -1.772171     8.975016     3.511879
|192> O :       -1.523132     9.283759     4.411862
|193> H :       -2.373779     9.382569     4.871546
|194> H :       -3.782438     5.305952     5.851479
|195> O :       -3.790202     6.088514     5.266701
|196> H :       -2.829598     6.345314     5.302956
|197> H :       -4.178585     9.037329     6.694452
|198> O :       -4.085999     8.842011     5.757539
|199> H :       -4.148955     7.864689     5.702885
|200> O         -5.148706     9.668114     2.922701
|201> H         -4.961285     9.791795     3.860486
|202> H         -5.216163     8.702068     2.854049
|203> *
|204>
|205>
|206>                          ****END OF INPUT****
 Total Charge           Charge          ....    0
 Multiplicity           Mult            ....    1
 Number of Electrons    NEL             ....  100
E(0)                                       ...   -760.635426715
E(0)                                       ...   -760.635426715
E(CORR)(strong-pairs)                      ...     -2.787529096
E(CORR)(weak-pairs)                        ...     -0.003031226
E(CORR)(corrected)                         ...     -2.790560322
E(TOT)                                     ...   -763.425987036
FINAL SINGLE POINT ENERGY      -763.518481274624
FINAL SINGLE POINT ENERGY      -687.160261346400
FINAL SINGLE POINT ENERGY       -76.342023835764
FINAL SINGLE POINT ENERGY      -687.161130090944

CARTESIAN COORDINATES (ANGSTROEM)
---------------------------------
  H     -3.443235    6.434413   -0.504000
  O     -3.271685    7.084807   -1.230295
  H     -3.161553    7.963534   -0.826568
  H     -3.164809    4.919460    1.110722
  O     -3.919989    5.319764    0.633197
  H     -4.366159    5.812195    1.362342
  H     -0.682080    6.306713    5.076776
  O     -1.295406    6.880480    5.606853
  H     -1.275444    7.764121    5.165067
  H     -1.795517    9.694788   -0.741253
  O     -2.614221    9.521136   -0.208755
  H     -3.175160   10.293579   -0.322272
  H     -2.306709    8.721835    1.321014
  O     -2.167145    8.083444    2.050273
  H     -1.370696    7.570353    1.808332
  H     -4.391280    6.394408    3.573568
  O     -4.543337    6.835331    2.712800
  H     -3.679109    7.260003    2.521458
  H     -1.772171    8.975016    3.511879
  O     -1.523132    9.283759    4.411862
  H     -2.373779    9.382569    4.871546
  H     -3.782438    5.305952    5.851479
  O     -3.790202    6.088514    5.266701
  H     -2.829598    6.345314    5.302956
  H     -4.178585    9.037329    6.694452
  O     -4.085999    8.842011    5.757539
  H     -4.148955    7.864689    5.702885
  O     -5.148706    9.668114    2.922701
  H     -4.961285    9.791795    3.860486
  H     -5.216163    8.702068    2.854049

 Multiplicity           Mult            ....    1
 Number of Electrons    NEL             ....   10
 Basis Dimension        Dim             ....  920

ORBITAL ENERGIES
----------------

  NO   OCC          E(Eh)            E(eV)
   0   2.0000     -20.569736      -559.7310
   1   2.0000      -1.349858       -36.7315
   2   2.0000      -0.707405       -19.2495
   3   2.0000      -0.587492       -15.9865
   4   2.0000      -0.510132       -13.8814
   5   0.0000       0.012279         0.3341
   6   0.0000       0.027114         0.7378
   7   0.0000       0.032317         0.8794
   8   0.0000       0.034076         0.9272
   9   0.0000       0.046103         1.2545

MULLIKEN ATOMIC CHARGES
-----------------------
   0 H :   -0.000288
   1 O :   -0.000060
   2 H :    0.000876
   3 H :   -0.000026
   4 O :    0.000794
   5 H :    0.001662
   6 H :    0.000028
   7 O :    0.000251
   8 H :   -0.000380
   9 H :   -0.000289
  10 O :   -0.002876
  11 H :    0.000081
  12 H :    0.004043
  13 O :    0.028581
  14 H :   -0.003700
  15 H :   -0.004880
  16 O :    0.013909
  17 H :   -0.012048
  18 H :   -0.008418
  19 O :    0.002167
  20 H :   -0.000664
  21 H :   -0.000429
  22 O :    0.002145
  23 H :    0.001071
  24 H :   -0.000546
  25 O :   -0.001202
  26 H :   -0.001687
  27 O :   -0.609757
  28 H :    0.284423
  29 H :    0.307218
Sum of atomic charges:   -0.0000000

LOEWDIN ATOMIC CHARGES
----------------------
   0 H :   -0.000110
   1 O :   -0.000035
   2 H :   -0.000230
   3 H :   -0.000076
   4 O :   -0.000132
   5 H :   -0.000769
   6 H :   -0.000022
   7 O :   -0.000040
   8 H :   -0.000203
   9 H :   -0.000126
  10 O :   -0.001641
  11 H :   -0.001260
  12 H :   -0.003819
  13 O :   -0.006296
  14 H :   -0.000369
  15 H :   -0.006305
  16 O :   -0.043385
  17 H :   -0.026694
  18 H :   -0.002854
  19 O :   -0.002137
  20 H :   -0.005105
  21 H :   -0.000074
  22 O :   -0.000622
  23 H :   -0.000280
  24 H :   -0.001667
  25 O :   -0.024605
  26 H :   -0.004759
  27 O :    1.095664
  28 H :   -0.485751
  29 H :   -0.476299

  Mayer bond orders larger than 0.100000
B( 27-O , 28-H ) :   0.9379 B( 27-O , 29-H ) :   0.8550

E(0)                                       ...    -76.059606866
E(CORR)(strong-pairs)                      ...     -0.274656415
E(CORR)(weak-pairs)                        ...     -0.000045969
E(CORR)(corrected)                         ...     -0.274702384
E(TOT)                                     ...    -76.334309250
E(CCSD(T))                                 ...    -76.342750862
FINAL SINGLE POINT ENERGY       -76.342750861861

DIPOLE MOMENT
-------------
                                X             Y             Z
Electronic contribution:     -0.02124       0.14916      -0.15236
Nuclear contribution   :      0.09985      -0.70115       0.72343
                        -----------------------------------------
Total Dipole Moment    :      0.07861      -0.55199       0.57107
                        -----------------------------------------
Magnitude (a.u.)       :      0.79812
Magnitude (Debye)      :      2.02866

Rotational constants in cm-1:    25.461416    14.763730     9.345037
Rotational constants in MHz : 763314.053453 442605.493265 280157.158132

                             ****ORCA TERMINATED NORMALLY****
TOTAL RUN TIME: 0 days 7 hours 8 minutes 3 seconds 581 msec
