                         Program Version 5.0.1 -  RELEASE  -
|  1> !QM/XTB2 DLPNO-CCSD(T) aug-cc-pVTZ aug-cc-pVTZ/C TightPNO
|  2> %maxcore 2000
|  3> %pal
|  4> nprocs 24
|  5> end
|  6> %qmmm
|  7> QMAtoms {45 46 47 108 109 110 177 178 179 264 265 266 321 322 323 324 325 326 363 364 365 390 391 392 471 472 473 600 601 602 } end
|  8> ActiveAtoms {45 46 47 108 109 110 177 178 179 264 265 266 321 322 323 324 325 326 363 364 365 390 391 392 471 472 473 600 601 602 } end
|  9> end
| 10> *xyzfile 0 1 grain_mol_opt.xyz
| 11>
| 12>
| 13>                          ****END OF INPUT****
FINAL SINGLE POINT ENERGY (L-QM2)    -1023.429217053620
FINAL SINGLE POINT ENERGY (S-QM2)      -50.910239357750

CARTESIAN COORDINATES (ANGSTROEM)
---------------------------------
  H     -3.443235    6.434413   -0.504000
  O     -3.271685    7.084807   -1.230295
  H     -3.161553    7.963534   -0.826568
  H     -3.164809    4.919460    1.110722
  O     -3.919989    5.319764    0.633197
  H     -4.366159    5.812195    1.362342
  H     -0.682080    6.306713    5.076776
  O     -1.295406    6.880480    5.606853
  H     -1.275444    7.764121    5.165067
  H     -1.795517    9.694788   -0.741253
  O     -2.614221    9.521136   -0.208755
  H     -3.175160   10.293579   -0.322272
  H     -2.306709    8.721835    1.321014
  O     -2.167145    8.083444    2.050273
  H     -1.370696    7.570353    1.808332
  H     -4.391280    6.394408    3.573568
  O     -4.543337    6.835331    2.712800
  H     -3.679109    7.260003    2.521458
  H     -1.772171    8.975016    3.511879
  O     -1.523132    9.283759    4.411862
  H     -2.373779    9.382569    4.871546
  H     -3.782438    5.305952    5.851479
  O     -3.790202    6.088514    5.266701
  H     -2.829598    6.345314    5.302956
  H     -4.178585    9.037329    6.694452
  O     -4.085999    8.842011    5.757539
  H     -4.148955    7.864689    5.702885
  O     -5.148706    9.668114    2.922701
  H     -4.961285    9.791795    3.860486
  H     -5.216163    8.702068    2.854049

 Total Charge           Charge          ....    0
 Multiplicity           Mult            ....    1
 Number of Electrons    NEL             ....  100
 Basis Dimension        Dim             ....  920

ORBITAL ENERGIES
----------------

  NO   OCC          E(Eh)            E(eV)
   0   2.0000     -20.620440      -561.1107
   1   2.0000     -20.599047      -560.5286
   2   2.0000     -20.598714      -560.5195
   3   2.0000     -20.589952      -560.2811
   4   2.0000     -20.587953      -560.2267
   5   2.0000     -20.585332      -560.1554
   6   2.0000     -20.571554      -559.7804
   7   2.0000     -20.571115      -559.7685
   8   2.0000     -20.566181      -559.6342
   9   2.0000     -20.533915      -558.7562
  10   2.0000      -1.408864       -38.3371
  11   2.0000      -1.395050       -37.9612
  12   2.0000      -1.387265       -37.7494
  13   2.0000      -1.382572       -37.6217
  14   2.0000      -1.373727       -37.3810
  15   2.0000      -1.368620       -37.2420
  16   2.0000      -1.355888       -36.8956
  17   2.0000      -1.351843       -36.7855
  18   2.0000      -1.345342       -36.6086
  19   2.0000      -1.318597       -35.8809
  20   2.0000      -0.770035       -20.9537
  21   2.0000      -0.758470       -20.6390
  22   2.0000      -0.755326       -20.5535
  23   2.0000      -0.747054       -20.3284
  24   2.0000      -0.744187       -20.2504
  25   2.0000      -0.743531       -20.2325
  26   2.0000      -0.731184       -19.8965
  27   2.0000      -0.727731       -19.8026
  28   2.0000      -0.726256       -19.7624
  29   2.0000      -0.683615       -18.6021
  30   2.0000      -0.664578       -18.0841
  31   2.0000      -0.657650       -17.8956
  32   2.0000      -0.645491       -17.5647
  33   2.0000      -0.625142       -17.0110
  34   2.0000      -0.621460       -16.9108
  35   2.0000      -0.608446       -16.5567
  36   2.0000      -0.603130       -16.4120
  37   2.0000      -0.599863       -16.3231
  38   2.0000      -0.581658       -15.8277
  39   2.0000      -0.562104       -15.2956
  40   2.0000      -0.557440       -15.1687
  41   2.0000      -0.542890       -14.7728
  42   2.0000      -0.538946       -14.6655
  43   2.0000      -0.536845       -14.6083
  44   2.0000      -0.530908       -14.4467
  45   2.0000      -0.529683       -14.4134
  46   2.0000      -0.522088       -14.2067
  47   2.0000      -0.515667       -14.0320
  48   2.0000      -0.511738       -13.9251
  49   2.0000      -0.479212       -13.0400
  50   0.0000       0.009096         0.2475
  51   0.0000       0.024447         0.6652
  52   0.0000       0.029053         0.7906
  53   0.0000       0.036765         1.0004
  54   0.0000       0.038719         1.0536

MULLIKEN ATOMIC CHARGES
-----------------------
   0 H :    0.331485
   1 O :   -0.744829
   2 H :    0.303045
   3 H :    0.214948
   4 O :   -0.562798
   5 H :    0.339294
   6 H :    0.205434
   7 O :   -0.516717
   8 H :    0.318083
   9 H :    0.217143
  10 O :   -0.386072
  11 H :    0.184311
  12 H :    0.385834
  13 O :   -0.506787
  14 H :    0.178452
  15 H :    0.302636
  16 O :   -0.713254
  17 H :    0.515294
  18 H :    0.365068
  19 O :   -0.652540
  20 H :    0.332958
  21 H :    0.163113
  22 O :   -0.579064
  23 H :    0.343802
  24 H :    0.153074
  25 O :   -0.594301
  26 H :    0.409814
  27 O :   -0.663701
  28 H :    0.311611
  29 H :    0.344666
Sum of atomic charges:    0.0000000

LOEWDIN ATOMIC CHARGES
----------------------
   0 H :   -0.751474
   1 O :    1.003729
   2 H :   -0.734714
   3 H :   -0.403440
   4 O :    1.094547
   5 H :   -0.665277
   6 H :   -0.365974
   7 O :    1.088646
   8 H :   -0.678877
   9 H :   -0.328865
  10 O :    1.153421
  11 H :   -0.398380
  12 H :   -0.610678
  13 O :    1.172999
  14 H :   -0.354312
  15 H :   -0.593394
  16 O :    1.160116
  17 H :   -0.621650
  18 H :   -0.648023
  19 O :    1.115413
  20 H :   -0.571578
  21 H :   -0.387046
  22 O :    1.131797
  23 H :   -0.679590
  24 H :   -0.449232
  25 O :    1.104115
  26 H :   -0.614993
  27 O :    1.043763
  28 H :   -0.573523
  29 H :   -0.637528

  Mayer bond orders larger than 0.100000
B(  0-H ,  1-O ) :   0.8924 B(  1-O ,  2-H ) :   0.9256 B(  3-H ,  4-O ) :   1.0704
B(  4-O ,  5-H ) :   0.7859 B(  4-O , 16-O ) :  -0.1179 B(  5-H , 16-O ) :   0.1003
B(  6-H ,  7-O ) :   1.0736 B(  7-O ,  8-H ) :   0.7802 B(  7-O , 23-H ) :   0.1304
B(  8-H , 19-O ) :   0.1116 B(  9-H , 10-O ) :   1.0373 B( 10-O , 11-H ) :   1.0273
B( 12-H , 13-O ) :   0.8684 B( 13-O , 14-H ) :   1.0914 B( 15-H , 16-O ) :   0.9577
B( 16-O , 17-H ) :   0.5408 B( 18-H , 19-O ) :   0.7622 B( 19-O , 20-H ) :   0.9016
B( 21-H , 22-O ) :   1.0306 B( 22-O , 23-H ) :   0.7385 B( 24-H , 25-O ) :   1.0848
B( 25-O , 26-H ) :   0.7759 B( 27-O , 28-H ) :   0.9226 B( 27-O , 29-H ) :   0.8218

E(0)                                       ...   -760.789927061
E(0)                                       ...   -760.789927061
E(CORR)(strong-pairs)                      ...     -2.782283426
E(CORR)(weak-pairs)                        ...     -0.003011506
E(CORR)(corrected)                         ...     -2.785294932
E(TOT)                                     ...   -763.575221993
E(CCSD(T))                                 ...   -763.666949217
FINAL SINGLE POINT ENERGY      -763.666949217024
FINAL SINGLE POINT ENERGY (QM/QM2)    -1736.185926912895

DIPOLE MOMENT
-------------
                                X             Y             Z
Electronic contribution:      0.06062       0.48088       0.04973
Nuclear contribution   :      2.20152      -0.56150       1.95535
                        -----------------------------------------
Total Dipole Moment    :      2.26214      -0.08062       2.00509
                        -----------------------------------------
Magnitude (a.u.)       :      3.02393
Magnitude (Debye)      :      7.68622

Rotational constants in cm-1:     0.025684     0.013223     0.012030
Rotational constants in MHz :   769.976967   396.427210   360.657088

                             ****ORCA TERMINATED NORMALLY****
TOTAL RUN TIME: 0 days 1 hours 34 minutes 46 seconds 224 msec
