                         Program Version 5.0.1 -  RELEASE  -
|  1> ! DLPNO-CCSD(T) aug-cc-pVTZ aug-cc-pVTZ/C TightPNO
|  2> %maxcore 2000
|  3> %pal
|  4> nprocs 6
|  5> end
|  6> *xyzfile 0 1 mol_inp.xyz
|  7>
|  8>
|  9>                          ****END OF INPUT****

CARTESIAN COORDINATES (ANGSTROEM)
---------------------------------
  O     -5.148706    9.668114    2.922701
  H     -4.961285    9.791795    3.860486
  H     -5.216163    8.702068    2.854049

 Total Charge           Charge          ....    0
 Multiplicity           Mult            ....    1
 Number of Electrons    NEL             ....   10
 Basis Dimension        Dim             ....   92

ORBITAL ENERGIES
----------------

  NO   OCC          E(Eh)            E(eV)
   0   2.0000     -20.569903      -559.7355
   1   2.0000      -1.349994       -36.7352
   2   2.0000      -0.707532       -19.2529
   3   2.0000      -0.587607       -15.9896
   4   2.0000      -0.510175       -13.8826
   5   0.0000       0.029157         0.7934
   6   0.0000       0.047795         1.3006
   7   0.0000       0.135558         3.6887
   8   0.0000       0.159413         4.3379
   9   0.0000       0.175379         4.7723

MULLIKEN ATOMIC CHARGES
-----------------------
   0 O :   -0.454449
   1 H :    0.224475
   2 H :    0.229974
Sum of atomic charges:   -0.0000000

LOEWDIN ATOMIC CHARGES
----------------------
   0 O :    1.012051
   1 H :   -0.512961
   2 H :   -0.499090

  Mayer bond orders larger than 0.100000
B(  0-O ,  1-H ) :   0.9956 B(  0-O ,  2-H ) :   0.9914

E(0)                                       ...    -76.059452711
E(0)                                       ...    -76.059452711
E(CORR)(strong-pairs)                      ...     -0.274131506
E(CORR)(weak-pairs)                        ...     -0.000032320
E(CORR)(corrected)                         ...     -0.274163826
E(TOT)                                     ...    -76.333616536
E(CCSD(T))                                 ...    -76.342023836
FINAL SINGLE POINT ENERGY       -76.342023835764

DIPOLE MOMENT
-------------
                                X             Y             Z
Electronic contribution:     -0.02086       0.14881      -0.15183
Nuclear contribution   :      0.09985      -0.70115       0.72343
                        -----------------------------------------
Total Dipole Moment    :      0.07899      -0.55234       0.57161
                        -----------------------------------------
Magnitude (a.u.)       :      0.79878
Magnitude (Debye)      :      2.03034

Rotational constants in cm-1:    25.461416    14.763730     9.345037
Rotational constants in MHz : 763314.053453 442605.493265 280157.158132

                             ****ORCA TERMINATED NORMALLY****
TOTAL RUN TIME: 0 days 0 hours 0 minutes 43 seconds 150 msec
