                         Program Version 5.0.1 -  RELEASE  -
|  1> !QM/XTB2 DLPNO-CCSD(T) aug-cc-pVTZ aug-cc-pVTZ/C TightPNO
|  2> %maxcore 2000
|  3> %pal
|  4> nprocs 24
|  5> end
|  6> %qmmm
|  7> QMAtoms {45 46 47 108 109 110 177 178 179 264 265 266 321 322 323 324 325 326 363 364 365 390 391 392 471 472 473 } end
|  8> ActiveAtoms {45 46 47 108 109 110 177 178 179 264 265 266 321 322 323 324 325 326 363 364 365 390 391 392 471 472 473 } end
|  9> end
| 10> *xyzfile 0 1 surf_inp.xyz
| 11>
| 12>
| 13>                          ****END OF INPUT****
FINAL SINGLE POINT ENERGY (L-QM2)    -1018.340225047670
FINAL SINGLE POINT ENERGY (S-QM2)      -45.824872271320

CARTESIAN COORDINATES (ANGSTROEM)
---------------------------------
  H     -3.443235    6.434413   -0.504000
  O     -3.271685    7.084807   -1.230295
  H     -3.161553    7.963534   -0.826568
  H     -3.164809    4.919460    1.110722
  O     -3.919989    5.319764    0.633197
  H     -4.366159    5.812195    1.362342
  H     -0.682080    6.306713    5.076776
  O     -1.295406    6.880480    5.606853
  H     -1.275444    7.764121    5.165067
  H     -1.795517    9.694788   -0.741253
  O     -2.614221    9.521136   -0.208755
  H     -3.175160   10.293579   -0.322272
  H     -2.306709    8.721835    1.321014
  O     -2.167145    8.083444    2.050273
  H     -1.370696    7.570353    1.808332
  H     -4.391280    6.394408    3.573568
  O     -4.543337    6.835331    2.712800
  H     -3.679109    7.260003    2.521458
  H     -1.772171    8.975016    3.511879
  O     -1.523132    9.283759    4.411862
  H     -2.373779    9.382569    4.871546
  H     -3.782438    5.305952    5.851479
  O     -3.790202    6.088514    5.266701
  H     -2.829598    6.345314    5.302956
  H     -4.178585    9.037329    6.694452
  O     -4.085999    8.842011    5.757539
  H     -4.148955    7.864689    5.702885

 Total Charge           Charge          ....    0
 Multiplicity           Mult            ....    1
 Number of Electrons    NEL             ....   90
 Basis Dimension        Dim             ....  828

ORBITAL ENERGIES
----------------

  NO   OCC          E(Eh)            E(eV)
   0   2.0000     -20.628110      -561.3194
   1   2.0000     -20.599056      -560.5288
   2   2.0000     -20.592925      -560.3620
   3   2.0000     -20.581846      -560.0605
   4   2.0000     -20.578946      -559.9816
   5   2.0000     -20.567390      -559.6671
   6   2.0000     -20.566869      -559.6530
   7   2.0000     -20.566639      -559.6467
   8   2.0000     -20.550649      -559.2116
   9   2.0000      -1.415503       -38.5178
  10   2.0000      -1.390249       -37.8306
  11   2.0000      -1.383564       -37.6487
  12   2.0000      -1.375647       -37.4333
  13   2.0000      -1.363235       -37.0955
  14   2.0000      -1.354392       -36.8549
  15   2.0000      -1.347611       -36.6704
  16   2.0000      -1.343915       -36.5698
  17   2.0000      -1.332907       -36.2702
  18   2.0000      -0.776493       -21.1294
  19   2.0000      -0.760912       -20.7055
  20   2.0000      -0.744911       -20.2701
  21   2.0000      -0.744817       -20.2675
  22   2.0000      -0.737843       -20.0777
  23   2.0000      -0.730855       -19.8876
  24   2.0000      -0.726808       -19.7774
  25   2.0000      -0.715074       -19.4581
  26   2.0000      -0.710826       -19.3426
  27   2.0000      -0.665152       -18.0997
  28   2.0000      -0.650267       -17.6947
  29   2.0000      -0.638984       -17.3876
  30   2.0000      -0.619666       -16.8620
  31   2.0000      -0.612731       -16.6733
  32   2.0000      -0.602825       -16.4037
  33   2.0000      -0.593607       -16.1529
  34   2.0000      -0.589099       -16.0302
  35   2.0000      -0.569312       -15.4918
  36   2.0000      -0.560635       -15.2557
  37   2.0000      -0.538794       -14.6613
  38   2.0000      -0.533226       -14.5098
  39   2.0000      -0.526419       -14.3246
  40   2.0000      -0.523517       -14.2456
  41   2.0000      -0.522683       -14.2229
  42   2.0000      -0.516600       -14.0574
  43   2.0000      -0.508003       -13.8235
  44   2.0000      -0.495253       -13.4765
  45   0.0000       0.012561         0.3418
  46   0.0000       0.021080         0.5736
  47   0.0000       0.031254         0.8505
  48   0.0000       0.039892         1.0855
  49   0.0000       0.042560         1.1581

MULLIKEN ATOMIC CHARGES
-----------------------
   0 H :    0.331458
   1 O :   -0.725005
   2 H :    0.280930
   3 H :    0.209035
   4 O :   -0.545590
   5 H :    0.335691
   6 H :    0.203732
   7 O :   -0.506332
   8 H :    0.325715
   9 H :    0.230620
  10 O :   -0.384984
  11 H :    0.175836
  12 H :    0.327291
  13 O :   -0.434577
  14 H :    0.165909
  15 H :    0.292327
  16 O :   -0.647781
  17 H :    0.426010
  18 H :    0.354037
  19 O :   -0.628696
  20 H :    0.314092
  21 H :    0.158733
  22 O :   -0.589500
  23 H :    0.349592
  24 H :    0.185890
  25 O :   -0.559598
  26 H :    0.355167
Sum of atomic charges:    0.0000000

LOEWDIN ATOMIC CHARGES
----------------------
   0 H :   -0.751554
   1 O :    1.003040
   2 H :   -0.735418
   3 H :   -0.404938
   4 O :    1.090973
   5 H :   -0.671966
   6 H :   -0.367072
   7 O :    1.087994
   8 H :   -0.679123
   9 H :   -0.327639
  10 O :    1.152853
  11 H :   -0.399913
  12 H :   -0.611999
  13 O :    1.170954
  14 H :   -0.354596
  15 H :   -0.623456
  16 O :    1.128637
  17 H :   -0.642338
  18 H :   -0.649686
  19 O :    1.111791
  20 H :   -0.572014
  21 H :   -0.389433
  22 O :    1.128506
  23 H :   -0.680487
  24 H :   -0.467194
  25 O :    1.085713
  26 H :   -0.631634

  Mayer bond orders larger than 0.100000
B(  0-H ,  1-O ) :   0.8888 B(  1-O ,  2-H ) :   0.9507 B(  3-H ,  4-O ) :   1.0664
B(  4-O ,  5-H ) :   0.7997 B(  4-O , 16-O ) :  -0.1218 B(  5-H , 16-O ) :   0.1021
B(  6-H ,  7-O ) :   1.0700 B(  7-O ,  8-H ) :   0.7896 B(  7-O , 23-H ) :   0.1276
B(  8-H , 19-O ) :   0.1008 B(  9-H , 10-O ) :   1.0220 B( 10-O , 11-H ) :   1.0371
B( 12-H , 13-O ) :   0.9201 B( 13-O , 14-H ) :   1.0798 B( 15-H , 16-O ) :   0.9392
B( 16-O , 17-H ) :   0.6816 B( 18-H , 19-O ) :   0.8017 B( 19-O , 20-H ) :   0.9212
B( 21-H , 22-O ) :   1.0401 B( 22-O , 23-H ) :   0.7372 B( 24-H , 25-O ) :   1.0472
B( 25-O , 26-H ) :   0.8291

E(0)                                       ...   -684.720877309
E(0)                                       ...   -684.720877309
E(CORR)(strong-pairs)                      ...     -2.503832772
E(CORR)(weak-pairs)                        ...     -0.002418036
E(CORR)(corrected)                         ...     -2.506250808
E(TOT)                                     ...   -687.227128117
E(CCSD(T))                                 ...   -687.309680369
FINAL SINGLE POINT ENERGY      -687.309680369293
FINAL SINGLE POINT ENERGY (QM/QM2)    -1659.825033145643

DIPOLE MOMENT
-------------
                                X             Y             Z
Electronic contribution:     -0.01585       0.50326       0.13051
Nuclear contribution   :      2.10167       0.13965       1.23192
                        -----------------------------------------
Total Dipole Moment    :      2.08583       0.64291       1.36244
                        -----------------------------------------
Magnitude (a.u.)       :      2.57298
Magnitude (Debye)      :      6.54000

Rotational constants in cm-1:     0.032946     0.014653     0.012226
Rotational constants in MHz :   987.691161   439.275466   366.537615

                             ****ORCA TERMINATED NORMALLY****
TOTAL RUN TIME: 0 days 1 hours 26 minutes 22 seconds 949 msec
