                         Program Version 5.0.1 -  RELEASE  -
|  1> !B97-3c
|  2> !tightOPT tightSCF DEFGRID3 freq
|  3> %pal
|  4> nprocs 1
|  5> end
|  6> *xyz 0 1
|  7> H        -0.51834056273939   -0.31347347662373   -3.19289586567224
|  8> O         0.37659754773774   -0.67801074079271   -3.04506515334007
|  9> H         1.04671633295047   -0.05237740129243   -3.36450074679592
| 10> *
| 11>
| 12>                          ****END OF INPUT****
 Total Charge           Charge          ....    0
 Multiplicity           Mult            ....    1
 Number of Electrons    NEL             ....   10
Dispersion correction           -0.000846162
FINAL SINGLE POINT ENERGY       -76.397003324119
Dispersion correction            ... done
Dispersion correction           -0.000846889
FINAL SINGLE POINT ENERGY       -76.398164841965
Dispersion correction            ... done
Dispersion correction           -0.000847178
FINAL SINGLE POINT ENERGY       -76.398347386900
Dispersion correction            ... done
Dispersion correction           -0.000847241
FINAL SINGLE POINT ENERGY       -76.398366629826
Dispersion correction            ... done
Dispersion correction           -0.000847237
FINAL SINGLE POINT ENERGY       -76.398366805343
Dispersion correction            ... done
                    ***********************HURRAY********************

CARTESIAN COORDINATES (ANGSTROEM)
---------------------------------
  H     -0.479911   -0.297004   -3.201924
  O      0.378889   -0.699256   -3.034964
  H      1.005995   -0.047602   -3.365574

 Multiplicity           Mult            ....    1
 Number of Electrons    NEL             ....   10
 Basis Dimension        Dim             ....   30

ORBITAL ENERGIES
----------------

  NO   OCC          E(Eh)            E(eV)
   0   2.0000     -18.744315      -510.0588
   1   2.0000      -0.931108       -25.3367
   2   2.0000      -0.481697       -13.1076
   3   2.0000      -0.338358        -9.2072
   4   2.0000      -0.256333        -6.9752
   5   0.0000       0.005520         0.1502
   6   0.0000       0.078960         2.1486
   7   0.0000       0.259417         7.0591
   8   0.0000       0.278998         7.5919
   9   0.0000       0.320785         8.7290

MULLIKEN ATOMIC CHARGES
-----------------------
   0 H :    0.432263
   1 O :   -0.864526
   2 H :    0.432263
Sum of atomic charges:   -0.0000000

LOEWDIN ATOMIC CHARGES
----------------------
   0 H :    0.357467
   1 O :   -0.714932
   2 H :    0.357466

  Mayer bond orders larger than 0.100000
B(  0-H ,  1-O ) :   0.7893 B(  1-O ,  2-H ) :   0.7893

Dispersion correction           -0.000847237
FINAL SINGLE POINT ENERGY       -76.398366805927

DIPOLE MOMENT
-------------
                                X             Y             Z
Electronic contribution:      0.05205      -0.23677       0.11178
Nuclear contribution   :     -0.19285       0.87723      -0.41416
                        -----------------------------------------
Total Dipole Moment    :     -0.14080       0.64046      -0.30237
                        -----------------------------------------
Magnitude (a.u.)       :      0.72211
Magnitude (Debye)      :      1.83546

Dispersion correction in the Hessian             ... done   (      0.5 sec)

VIBRATIONAL FREQUENCIES
-----------------------

Scaling factor for frequencies =  1.000000000  (already applied!)

   0:         0.00 cm**-1
   1:         0.00 cm**-1
   2:         0.00 cm**-1
   3:         0.00 cm**-1
   4:         0.00 cm**-1
   5:         0.00 cm**-1
   6:      1711.76 cm**-1
   7:      3737.17 cm**-1
   8:      3849.08 cm**-1

IR SPECTRUM
-----------

 Mode   freq       eps      Int      T**2         TX        TY        TZ
       cm**-1   L/(mol*cm) km/mol    a.u.
----------------------------------------------------------------------------
  6:   1711.76   0.014735   74.47  0.002686  ( 0.010105 -0.045968  0.021707)
  7:   3737.17   0.000041    0.21  0.000003  (-0.000370  0.001636 -0.000774)
  8:   3849.08   0.007020   35.47  0.000569  (-0.023389 -0.003927  0.002577)

--------------------------
THERMOCHEMISTRY AT 298.15K
--------------------------

Temperature         ... 298.15 K
Pressure            ... 1.00 atm
Total Mass          ... 18.02 AMU

Throughout the following assumptions are being made:
  (1) The electronic state is orbitally nondegenerate
  (2) There are no thermally accessible electronically excited states
  (3) Hindered rotations indicated by low frequency modes are not
      treated as such but are treated as vibrations and this may
      cause some error
  (4) All equations used are the standard statistical mechanics
      equations for an ideal gas
  (5) All vibrations are strictly harmonic

freq.    1711.76  E(vib)   ...       0.00
freq.    3737.17  E(vib)   ...       0.00
freq.    3849.08  E(vib)   ...       0.00

------------
INNER ENERGY
------------

The inner energy is: U= E(el) + E(ZPE) + E(vib) + E(rot) + E(trans)
    E(el)   - is the total energy from the electronic structure calculation
              = E(kin-el) + E(nuc-el) + E(el-el) + E(nuc-nuc)
    E(ZPE)  - the the zero temperature vibrational energy from the frequency calculation
    E(vib)  - the the finite temperature correction to E(ZPE) due to population
              of excited vibrational states
    E(rot)  - is the rotational thermal energy
    E(trans)- is the translational thermal energy

Summary of contributions to the inner energy U:
Electronic energy                ...    -76.39836681 Eh
Zero point energy                ...      0.02118242 Eh      13.29 kcal/mol
Thermal vibrational correction   ...      0.00000202 Eh       0.00 kcal/mol
Thermal rotational correction    ...      0.00141627 Eh       0.89 kcal/mol
Thermal translational correction ...      0.00141627 Eh       0.89 kcal/mol
-----------------------------------------------------------------------
Total thermal energy                    -76.37434982 Eh

Summary of corrections to the electronic energy:
(perhaps to be used in another calculation)
Total thermal correction                  0.00283456 Eh       1.78 kcal/mol
Non-thermal (ZPE) correction              0.02118242 Eh      13.29 kcal/mol
-----------------------------------------------------------------------
Total correction                          0.02401698 Eh      15.07 kcal/mol

--------
ENTHALPY
--------

The enthalpy is H = U + kB*T
                kB is Boltzmann's constant
Total free energy                 ...    -76.37434982 Eh
Thermal Enthalpy correction       ...      0.00094421 Eh       0.59 kcal/mol
-----------------------------------------------------------------------
Total Enthalpy                    ...    -76.37340562 Eh

Note: Rotational entropy computed according to Herzberg
Infrared and Raman Spectra, Chapter V,1, Van Nostrand Reinhold, 1945
Point Group:  C2v, Symmetry Number:   2
Rotational constants in cm-1:    26.673507    14.562119     9.419592

Vibrational entropy computed according to the QRRHO of S. Grimme
Chem.Eur.J. 2012 18 9955

-------
ENTROPY
-------

The entropy contributions are T*S = T*(S(el)+S(vib)+S(rot)+S(trans))
     S(el)   - electronic entropy
     S(vib)  - vibrational entropy
     S(rot)  - rotational entropy
     S(trans)- translational entropy
The entropies will be listed as multiplied by the temperature to get
units of energy

Electronic entropy                ...      0.00000000 Eh      0.00 kcal/mol
Vibrational entropy               ...      0.00000226 Eh      0.00 kcal/mol
Rotational entropy                ...      0.00498291 Eh      3.13 kcal/mol
Translational entropy             ...      0.01644380 Eh     10.32 kcal/mol
-----------------------------------------------------------------------
Final entropy term                ...      0.02142897 Eh     13.45 kcal/mol

In case the symmetry of your molecule has not been determined correctly
or in case you have a reason to use a different symmetry number we print
out the resulting rotational entropy values for sn=1,12 :
 --------------------------------------------------------
|  sn= 1 | S(rot)=       0.00563736 Eh      3.54 kcal/mol|
|  sn= 2 | S(rot)=       0.00498291 Eh      3.13 kcal/mol|
|  sn= 3 | S(rot)=       0.00460007 Eh      2.89 kcal/mol|
|  sn= 4 | S(rot)=       0.00432845 Eh      2.72 kcal/mol|
|  sn= 5 | S(rot)=       0.00411776 Eh      2.58 kcal/mol|
|  sn= 6 | S(rot)=       0.00394562 Eh      2.48 kcal/mol|
|  sn= 7 | S(rot)=       0.00380007 Eh      2.38 kcal/mol|
|  sn= 8 | S(rot)=       0.00367399 Eh      2.31 kcal/mol|
|  sn= 9 | S(rot)=       0.00356278 Eh      2.24 kcal/mol|
|  sn=10 | S(rot)=       0.00346330 Eh      2.17 kcal/mol|
|  sn=11 | S(rot)=       0.00337331 Eh      2.12 kcal/mol|
|  sn=12 | S(rot)=       0.00329116 Eh      2.07 kcal/mol|
 --------------------------------------------------------

-------------------
GIBBS FREE ENERGY
-------------------

The Gibbs free energy is G = H - T*S

Total enthalpy                    ...    -76.37340562 Eh
Total entropy correction          ...     -0.02142897 Eh    -13.45 kcal/mol
-----------------------------------------------------------------------
Final Gibbs free energy         ...    -76.39483458 Eh

For completeness - the Gibbs free energy minus the electronic energy
G-E(el)                           ...      0.00353222 Eh      2.22 kcal/mol

                             ****ORCA TERMINATED NORMALLY****
TOTAL RUN TIME: 0 days 0 hours 0 minutes 45 seconds 138 msec
