                         Program Version 5.0.2 -  RELEASE  -
|  1> !QM/XTB2 DLPNO-CCSD(T) aug-cc-pVTZ aug-cc-pVTZ/C TightPNO
|  2> %maxcore 2000
|  3> %pal
|  4> nprocs 28
|  5> end
|  6> %qmmm
|  7> QMAtoms {177 178 179 363 364 365 441 442 443 471 472 473 504 505 506 582 583 584 } end
|  8> ActiveAtoms {177 178 179 363 364 365 441 442 443 471 472 473 504 505 506 582 583 584 } end
|  9> end
| 10> *xyzfile 0 1 cluster_opt.xyz
| 11>
| 12>
| 13>                          ****END OF INPUT****
FINAL SINGLE POINT ENERGY (L-QM2)    -1018.342471166890
FINAL SINGLE POINT ENERGY (S-QM2)      -30.542526457180

CARTESIAN COORDINATES (ANGSTROEM)
---------------------------------
  H     -0.828974    6.356515    4.904263
  O     -1.402256    6.963404    5.443906
  H     -1.408526    7.810919    4.944656
  H     -1.885611    9.009821    3.318149
  O     -1.593358    9.361959    4.190321
  H     -2.429944    9.449903    4.685638
  H     -0.076803    5.820163   10.597946
  O     -0.799597    6.453440   10.546845
  H     -0.695380    6.849429    9.661628
  H     -3.804282    8.828642    6.620885
  O     -3.996532    8.835032    5.677731
  H     -4.098833    7.890171    5.453555
  H      0.620563    7.184166    7.488238
  O     -0.283207    7.271914    7.840438
  H     -0.805645    7.256698    6.996548
  H      0.466772    8.731436    4.158284
  O      1.084561    8.029103    3.931471
  H      1.287802    7.545209    4.756305

 Total Charge           Charge          ....    0
 Multiplicity           Mult            ....    1
 Number of Electrons    NEL             ....   60
 Basis Dimension        Dim             ....  552

ORBITAL ENERGIES
----------------

  NO   OCC          E(Eh)            E(eV)
   0   2.0000     -20.592752      -560.3573
   1   2.0000     -20.590453      -560.2947
   2   2.0000     -20.589755      -560.2757
   3   2.0000     -20.588100      -560.2307
   4   2.0000     -20.571813      -559.7875
   5   2.0000     -20.566754      -559.6498
   6   2.0000      -1.388865       -37.7929
   7   2.0000      -1.372153       -37.3382
   8   2.0000      -1.370644       -37.2971
   9   2.0000      -1.364689       -37.1351
  10   2.0000      -1.354169       -36.8488
  11   2.0000      -1.344923       -36.5972
  12   2.0000      -0.747783       -20.3482
  13   2.0000      -0.743565       -20.2334
  14   2.0000      -0.730198       -19.8697
  15   2.0000      -0.724069       -19.7029
  16   2.0000      -0.721978       -19.6460
  17   2.0000      -0.714715       -19.4484
  18   2.0000      -0.637452       -17.3460
  19   2.0000      -0.631764       -17.1912
  20   2.0000      -0.618550       -16.8316
  21   2.0000      -0.607075       -16.5193
  22   2.0000      -0.597627       -16.2623
  23   2.0000      -0.581108       -15.8128
  24   2.0000      -0.541324       -14.7302
  25   2.0000      -0.538714       -14.6591
  26   2.0000      -0.527763       -14.3612
  27   2.0000      -0.526521       -14.3274
  28   2.0000      -0.522864       -14.2279
  29   2.0000      -0.512419       -13.9436
  30   0.0000       0.019059         0.5186
  31   0.0000       0.033105         0.9008
  32   0.0000       0.038885         1.0581
  33   0.0000       0.043960         1.1962
  34   0.0000       0.047565         1.2943

MULLIKEN ATOMIC CHARGES
-----------------------
   0 H :    0.177874
   1 O :   -0.529648
   2 H :    0.392337
   3 H :    0.228827
   4 O :   -0.528710
   5 H :    0.330156
   6 H :    0.231450
   7 O :   -0.577368
   8 H :    0.346832
   9 H :    0.232186
  10 O :   -0.497765
  11 H :    0.265388
  12 H :    0.240025
  13 O :   -0.660457
  14 H :    0.344759
  15 H :    0.312892
  16 O :   -0.594346
  17 H :    0.285567
Sum of atomic charges:   -0.0000000

LOEWDIN ATOMIC CHARGES
----------------------
   0 H :   -0.378912
   1 O :    1.095951
   2 H :   -0.697237
   3 H :   -0.378115
   4 O :    1.110101
   5 H :   -0.580234
   6 H :   -0.513012
   7 O :    1.007167
   8 H :   -0.681341
   9 H :   -0.469312
  10 O :    1.069732
  11 H :   -0.443413
  12 H :   -0.440735
  13 O :    1.070231
  14 H :   -0.708528
  15 H :   -0.604771
  16 O :    1.010402
  17 H :   -0.467972

  Mayer bond orders larger than 0.100000
B(  0-H ,  1-O ) :   1.1029 B(  1-O ,  2-H ) :   0.7669 B(  1-O , 14-H ) :   0.1085
B(  3-H ,  4-O ) :   1.0124 B(  4-O ,  5-H ) :   0.9187 B(  6-H ,  7-O ) :   0.9975
B(  7-O ,  8-H ) :   0.8713 B(  9-H , 10-O ) :   0.9888 B( 10-O , 11-H ) :   0.9654
B( 12-H , 13-O ) :   1.0165 B( 13-O , 14-H ) :   0.8088 B( 15-H , 16-O ) :   0.9293
B( 16-O , 17-H ) :   0.9867

E(0)                                       ...   -456.494911694
E(0)                                       ...   -456.494911694
E(CORR)(strong-pairs)                      ...     -1.658344524
E(CORR)(weak-pairs)                        ...     -0.001133289
E(CORR)(corrected)                         ...     -1.659477813
E(TOT)                                     ...   -458.154389507
E(CCSD(T))                                 ...   -458.207411804
FINAL SINGLE POINT ENERGY      -458.207411803885
FINAL SINGLE POINT ENERGY (QM/QM2)    -1446.007356513595

DIPOLE MOMENT
-------------
                                X             Y             Z
Electronic contribution:     -0.21944       0.61491      -0.31970
Nuclear contribution   :      0.26795      -0.91279      -1.39448
                        -----------------------------------------
Total Dipole Moment    :      0.04851      -0.29788      -1.71418
                        -----------------------------------------
Magnitude (a.u.)       :      1.74055
Magnitude (Debye)      :      4.42412

Rotational constants in cm-1:     0.055259     0.025440     0.018679
Rotational constants in MHz :  1656.636425   762.682150   559.995144

                             ****ORCA TERMINATED NORMALLY****
TOTAL RUN TIME: 0 days 0 hours 30 minutes 34 seconds 367 msec
