                         Program Version 5.0.2 -  RELEASE  -
|  1> #------------------------------------------------------
|  2> # After the Orca calculation you will get two inter-
|  3> # action energies at the end of the output file. The
|  4> # difference is the negative BSSE.
|  5> #
|  6> # The script will set the orbital guess PModel for
|  7> # jobs 2-5 since Orca will try to use the .gbw-files of
|  8> # the earlier calculations which does not work for jobs
|  9> # 2 and 3 and does not help for jobs 4 and 5.
| 10> #------------------------------------------------------
| 11> #
| 12> #-------------------------
| 13> #     First the dimer
| 14> #-------------------------
| 15>
| 16> %id "dimer"
| 17> ! DLPNO-CCSD(T) aug-cc-pVTZ aug-cc-pVTZ/C TightPNO
| 18> %maxcore 2000
| 19> %pal
| 20> nprocs 28
| 21> end
| 22>
| 23> * xyz 0 1
| 24> H    -0.804062     6.340113     4.888402
| 25> O    -1.378747     6.933561     5.445671
| 26> H    -1.412110     7.795920     4.959173
| 27> H    -1.908145     8.974657     3.345545
| 28> O    -1.648145     9.297246     4.238129
| 29> H    -2.511666     9.328457     4.717779
| 30> H    -0.103643     5.827665     10.524840
| 31> O    -0.828873     6.460308     10.542123
| 32> H    -0.805058     6.863443     9.658288
| 33> H    -3.483406     8.886433     6.595681
| 34> O    -3.925177     8.866311     5.725402
| 35> H    -4.083589     7.924209     5.541347
| 36> H     0.579883     7.278753     7.496314
| 37> O    -0.353610     7.304994     7.766540
| 38> H    -0.807781     7.168631     6.867484
| 39> H     0.437110     8.741559     4.172831
| 40> O     1.092041     8.070323     3.953583
| 41> H     1.295727     7.585341     4.777675
| 42> C    -1.868207     10.737395     7.827669
| 43> O    -2.262538     9.382700     8.014584
| 44> H    -2.772424     11.338518     7.793177
| 45> H    -1.462500     8.828674     7.980387
| 46> H    -1.248826     11.091164     8.655671
| 47> H    -1.324497     10.881085     6.891201
| 48> *
| 49>
| 50> #--------------------------
| 51> #   Now the fragments at
| 52> #      dimer-geometry
| 53> #-------------------------
| 54>
| 55> $new_job
| 56> %id "fragment"
| 57> %scf guess PModel end
| 58> ! DLPNO-CCSD(T) aug-cc-pVTZ aug-cc-pVTZ/C TightPNO
| 59> %maxcore 2000
| 60> %pal
| 61> nprocs 28
| 62> end
| 63>
| 64> * xyz 0 1
| 65> H    -0.804062     6.340113     4.888402
| 66> O    -1.378747     6.933561     5.445671
| 67> H    -1.412110     7.795920     4.959173
| 68> H    -1.908145     8.974657     3.345545
| 69> O    -1.648145     9.297246     4.238129
| 70> H    -2.511666     9.328457     4.717779
| 71> H    -0.103643     5.827665     10.524840
| 72> O    -0.828873     6.460308     10.542123
| 73> H    -0.805058     6.863443     9.658288
| 74> H    -3.483406     8.886433     6.595681
| 75> O    -3.925177     8.866311     5.725402
| 76> H    -4.083589     7.924209     5.541347
| 77> H     0.579883     7.278753     7.496314
| 78> O    -0.353610     7.304994     7.766540
| 79> H    -0.807781     7.168631     6.867484
| 80> H     0.437110     8.741559     4.172831
| 81> O     1.092041     8.070323     3.953583
| 82> H     1.295727     7.585341     4.777675
| 83> *
| 84>
| 85> $new_job
| 86> %id "fragment"
| 87> %scf guess PModel end
| 88> ! DLPNO-CCSD(T) aug-cc-pVTZ aug-cc-pVTZ/C TightPNO
| 89> %maxcore 2000
| 90> %pal
| 91> nprocs 6
| 92> end
| 93>
| 94> * xyz 0 1
| 95> C    -1.868207     10.737395     7.827669
| 96> O    -2.262538     9.382700     8.014584
| 97> H    -2.772424     11.338518     7.793177
| 98> H    -1.462500     8.828674     7.980387
| 99> H    -1.248826     11.091164     8.655671
|100> H    -1.324497     10.881085     6.891201
|101> *
|102>
|103> #--------------------------
|104> #   Now the fragments at
|105> #   dimer-geometry with
|106> #     the dimer-basis
|107> #-------------------------
|108>
|109> $new_job
|110> %id "ghost"
|111> %scf guess PModel end
|112> ! DLPNO-CCSD(T) aug-cc-pVTZ aug-cc-pVTZ/C TightPNO
|113> %maxcore 2000
|114> %pal
|115> nprocs 28
|116> end
|117>
|118> * xyz 0 1
|119> H         -0.804062     6.340113     4.888402
|120> O         -1.378747     6.933561     5.445671
|121> H         -1.412110     7.795920     4.959173
|122> H         -1.908145     8.974657     3.345545
|123> O         -1.648145     9.297246     4.238129
|124> H         -2.511666     9.328457     4.717779
|125> H         -0.103643     5.827665     10.524840
|126> O         -0.828873     6.460308     10.542123
|127> H         -0.805058     6.863443     9.658288
|128> H         -3.483406     8.886433     6.595681
|129> O         -3.925177     8.866311     5.725402
|130> H         -4.083589     7.924209     5.541347
|131> H          0.579883     7.278753     7.496314
|132> O         -0.353610     7.304994     7.766540
|133> H         -0.807781     7.168631     6.867484
|134> H          0.437110     8.741559     4.172831
|135> O          1.092041     8.070323     3.953583
|136> H          1.295727     7.585341     4.777675
|137> C :       -1.868207     10.737395     7.827669
|138> O :       -2.262538     9.382700     8.014584
|139> H :       -2.772424     11.338518     7.793177
|140> H :       -1.462500     8.828674     7.980387
|141> H :       -1.248826     11.091164     8.655671
|142> H :       -1.324497     10.881085     6.891201
|143> *
|144>
|145> $new_job
|146> %id "ghost"
|147> %scf guess PModel end
|148> ! DLPNO-CCSD(T) aug-cc-pVTZ aug-cc-pVTZ/C TightPNO
|149> %maxcore 2000
|150> %pal
|151> nprocs 6
|152> end
|153>
|154> * xyz 0 1
|155> H :       -0.804062     6.340113     4.888402
|156> O :       -1.378747     6.933561     5.445671
|157> H :       -1.412110     7.795920     4.959173
|158> H :       -1.908145     8.974657     3.345545
|159> O :       -1.648145     9.297246     4.238129
|160> H :       -2.511666     9.328457     4.717779
|161> H :       -0.103643     5.827665     10.524840
|162> O :       -0.828873     6.460308     10.542123
|163> H :       -0.805058     6.863443     9.658288
|164> H :       -3.483406     8.886433     6.595681
|165> O :       -3.925177     8.866311     5.725402
|166> H :       -4.083589     7.924209     5.541347
|167> H :        0.579883     7.278753     7.496314
|168> O :       -0.353610     7.304994     7.766540
|169> H :       -0.807781     7.168631     6.867484
|170> H :        0.437110     8.741559     4.172831
|171> O :        1.092041     8.070323     3.953583
|172> H :        1.295727     7.585341     4.777675
|173> C         -1.868207     10.737395     7.827669
|174> O         -2.262538     9.382700     8.014584
|175> H         -2.772424     11.338518     7.793177
|176> H         -1.462500     8.828674     7.980387
|177> H         -1.248826     11.091164     8.655671
|178> H         -1.324497     10.881085     6.891201
|179> *
|180>
|181>
|182>                          ****END OF INPUT****
 Total Charge           Charge          ....    0
 Multiplicity           Mult            ....    1
 Number of Electrons    NEL             ....   78
E(0)                                       ...   -571.471110552
E(0)                                       ...   -571.471110552
E(CORR)(strong-pairs)                      ...     -2.128023620
E(CORR)(weak-pairs)                        ...     -0.001887283
E(CORR)(corrected)                         ...     -2.129910903
E(TOT)                                     ...   -573.601021455
FINAL SINGLE POINT ENERGY      -573.671926467241
FINAL SINGLE POINT ENERGY      -458.087143122619
FINAL SINGLE POINT ENERGY      -115.561827054901
FINAL SINGLE POINT ENERGY      -458.088277633532

CARTESIAN COORDINATES (ANGSTROEM)
---------------------------------
  H     -0.804062    6.340113    4.888402
  O     -1.378747    6.933561    5.445671
  H     -1.412110    7.795920    4.959173
  H     -1.908145    8.974657    3.345545
  O     -1.648145    9.297246    4.238129
  H     -2.511666    9.328457    4.717779
  H     -0.103643    5.827665   10.524840
  O     -0.828873    6.460308   10.542123
  H     -0.805058    6.863443    9.658288
  H     -3.483406    8.886433    6.595681
  O     -3.925177    8.866311    5.725402
  H     -4.083589    7.924209    5.541347
  H      0.579883    7.278753    7.496314
  O     -0.353610    7.304994    7.766540
  H     -0.807781    7.168631    6.867484
  H      0.437110    8.741559    4.172831
  O      1.092041    8.070323    3.953583
  H      1.295727    7.585341    4.777675
  C     -1.868207   10.737395    7.827669
  O     -2.262538    9.382700    8.014584
  H     -2.772424   11.338518    7.793177
  H     -1.462500    8.828674    7.980387
  H     -1.248826   11.091164    8.655671
  H     -1.324497   10.881085    6.891201

 Multiplicity           Mult            ....    1
 Number of Electrons    NEL             ....   18
 Basis Dimension        Dim             ....  736

ORBITAL ENERGIES
----------------

  NO   OCC          E(Eh)            E(eV)
   0   2.0000     -20.560429      -559.4777
   1   2.0000     -11.271316      -306.7081
   2   2.0000      -1.353675       -36.8354
   3   2.0000      -0.924860       -25.1667
   4   2.0000      -0.687606       -18.7107
   5   2.0000      -0.619965       -16.8701
   6   2.0000      -0.593232       -16.1427
   7   2.0000      -0.503600       -13.7037
   8   2.0000      -0.451482       -12.2854
   9   0.0000       0.017364         0.4725
  10   0.0000       0.030316         0.8250
  11   0.0000       0.035010         0.9527
  12   0.0000       0.038160         1.0384
  13   0.0000       0.049215         1.3392

MULLIKEN ATOMIC CHARGES
-----------------------
   0 H :   -0.001305
   1 O :   -0.001092
   2 H :    0.001978
   3 H :   -0.000724
   4 O :    0.001809
   5 H :    0.000077
   6 H :   -0.000527
   7 O :    0.000308
   8 H :   -0.002042
   9 H :    0.038349
  10 O :    0.010330
  11 H :    0.006063
  12 H :    0.002235
  13 O :    0.016976
  14 H :   -0.009972
  15 H :    0.000369
  16 O :   -0.000028
  17 H :   -0.000126
  18 C :   -0.802491
  19 O :   -0.583268
  20 H :    0.339633
  21 H :    0.304497
  22 H :    0.301282
  23 H :    0.377669
Sum of atomic charges:    0.0000000

LOEWDIN ATOMIC CHARGES
----------------------
   0 H :   -0.000287
   1 O :   -0.003948
   2 H :   -0.002812
   3 H :   -0.000447
   4 O :   -0.007145
   5 H :   -0.008145
   6 H :   -0.000158
   7 O :   -0.001239
   8 H :   -0.006005
   9 H :   -0.166577
  10 O :   -0.022947
  11 H :   -0.004420
  12 H :   -0.004841
  13 O :   -0.050823
  14 H :   -0.024515
  15 H :   -0.000513
  16 O :   -0.000068
  17 H :   -0.000146
  18 C :    0.380511
  19 O :    0.913274
  20 H :   -0.185935
  21 H :   -0.441104
  22 H :   -0.184542
  23 H :   -0.177168

  Mayer bond orders larger than 0.100000
B( 18-C , 19-O ) :   0.9198 B( 18-C , 20-H ) :   0.9077 B( 18-C , 22-H ) :   0.9389
B( 18-C , 23-H ) :   0.8329 B( 19-O , 21-H ) :   0.8161

E(0)                                       ...   -115.091473463
E(CORR)(strong-pairs)                      ...     -0.455812618
E(CORR)(weak-pairs)                        ...     -0.000213206
E(CORR)(corrected)                         ...     -0.456025824
E(TOT)                                     ...   -115.547499286
E(CCSD(T))                                 ...   -115.562900455
FINAL SINGLE POINT ENERGY      -115.562900455083

DIPOLE MOMENT
-------------
                                X             Y             Z
Electronic contribution:     -0.61656      -1.62237       0.23644
Nuclear contribution   :      1.28070       1.86433      -0.34085
                        -----------------------------------------
Total Dipole Moment    :      0.66413       0.24196      -0.10442
                        -----------------------------------------
Magnitude (a.u.)       :      0.71451
Magnitude (Debye)      :      1.81613

Rotational constants in cm-1:     4.269809     0.824210     0.794708
Rotational constants in MHz : 128005.649962 24709.207319 23824.756219

                             ****ORCA TERMINATED NORMALLY****
TOTAL RUN TIME: 0 days 1 hours 15 minutes 14 seconds 635 msec
