                         Program Version 5.0.2 -  RELEASE  -
|  1> !QM/XTB2 DLPNO-CCSD(T) aug-cc-pVTZ aug-cc-pVTZ/C TightPNO
|  2> %maxcore 2000
|  3> %pal
|  4> nprocs 28
|  5> end
|  6> %qmmm
|  7> QMAtoms {177 178 179 363 364 365 441 442 443 471 472 473 504 505 506 582 583 584 600 601 602 603 604 605 } end
|  8> ActiveAtoms {177 178 179 363 364 365 441 442 443 471 472 473 504 505 506 582 583 584 600 601 602 603 604 605 } end
|  9> end
| 10> *xyzfile 0 1 grain_mol_opt.xyz
| 11>
| 12>
| 13>                          ****END OF INPUT****
FINAL SINGLE POINT ENERGY (L-QM2)    -1026.584581028430
FINAL SINGLE POINT ENERGY (S-QM2)      -38.781576658470

CARTESIAN COORDINATES (ANGSTROEM)
---------------------------------
  H     -0.804062    6.340113    4.888402
  O     -1.378747    6.933561    5.445671
  H     -1.412110    7.795920    4.959173
  H     -1.908145    8.974657    3.345545
  O     -1.648145    9.297246    4.238129
  H     -2.511666    9.328457    4.717779
  H     -0.103643    5.827665   10.524840
  O     -0.828873    6.460308   10.542123
  H     -0.805058    6.863443    9.658288
  H     -3.483406    8.886433    6.595681
  O     -3.925177    8.866311    5.725402
  H     -4.083589    7.924209    5.541347
  H      0.579883    7.278753    7.496314
  O     -0.353610    7.304994    7.766540
  H     -0.807781    7.168631    6.867484
  H      0.437110    8.741559    4.172831
  O      1.092041    8.070323    3.953583
  H      1.295727    7.585341    4.777675
  C     -1.868207   10.737395    7.827669
  O     -2.262538    9.382700    8.014584
  H     -2.772424   11.338518    7.793177
  H     -1.462500    8.828674    7.980387
  H     -1.248826   11.091164    8.655671
  H     -1.324497   10.881085    6.891201

 Total Charge           Charge          ....    0
 Multiplicity           Mult            ....    1
 Number of Electrons    NEL             ....   78
 Basis Dimension        Dim             ....  736

ORBITAL ENERGIES
----------------

  NO   OCC          E(Eh)            E(eV)
   0   2.0000     -20.600183      -560.5595
   1   2.0000     -20.594325      -560.4001
   2   2.0000     -20.585387      -560.1569
   3   2.0000     -20.584315      -560.1277
   4   2.0000     -20.574566      -559.8624
   5   2.0000     -20.563760      -559.5684
   6   2.0000     -20.562487      -559.5337
   7   2.0000     -11.273834      -306.7766
   8   2.0000      -1.396729       -38.0069
   9   2.0000      -1.375866       -37.4392
  10   2.0000      -1.370486       -37.2928
  11   2.0000      -1.365869       -37.1672
  12   2.0000      -1.359036       -36.9812
  13   2.0000      -1.352285       -36.7976
  14   2.0000      -1.343802       -36.5667
  15   2.0000      -0.929647       -25.2970
  16   2.0000      -0.753882       -20.5142
  17   2.0000      -0.747474       -20.3398
  18   2.0000      -0.742342       -20.2001
  19   2.0000      -0.725437       -19.7402
  20   2.0000      -0.723559       -19.6890
  21   2.0000      -0.716766       -19.5042
  22   2.0000      -0.695652       -18.9297
  23   2.0000      -0.646380       -17.5889
  24   2.0000      -0.637040       -17.3347
  25   2.0000      -0.624612       -16.9966
  26   2.0000      -0.615170       -16.7396
  27   2.0000      -0.609853       -16.5949
  28   2.0000      -0.601120       -16.3573
  29   2.0000      -0.590871       -16.0784
  30   2.0000      -0.579591       -15.7715
  31   2.0000      -0.545355       -14.8399
  32   2.0000      -0.541906       -14.7460
  33   2.0000      -0.538101       -14.6425
  34   2.0000      -0.525492       -14.2994
  35   2.0000      -0.522072       -14.2063
  36   2.0000      -0.506548       -13.7839
  37   2.0000      -0.503013       -13.6877
  38   2.0000      -0.457685       -12.4542
  39   0.0000       0.016090         0.4378
  40   0.0000       0.029616         0.8059
  41   0.0000       0.034380         0.9355
  42   0.0000       0.043566         1.1855
  43   0.0000       0.044591         1.2134

MULLIKEN ATOMIC CHARGES
-----------------------
   0 H :    0.114085
   1 O :   -0.433535
   2 H :    0.407556
   3 H :    0.151004
   4 O :   -0.472452
   5 H :    0.371888
   6 H :    0.209329
   7 O :   -0.588463
   8 H :    0.411265
   9 H :    0.390373
  10 O :   -0.576160
  11 H :    0.219085
  12 H :    0.243789
  13 O :   -0.780083
  14 H :    0.359545
  15 H :    0.316168
  16 O :   -0.607656
  17 H :    0.292554
  18 C :   -0.814005
  19 O :   -0.615405
  20 H :    0.339754
  21 H :    0.370439
  22 H :    0.304847
  23 H :    0.386079
Sum of atomic charges:   -0.0000000

LOEWDIN ATOMIC CHARGES
----------------------
   0 H :   -0.351693
   1 O :    1.127306
   2 H :   -0.690165
   3 H :   -0.372408
   4 O :    1.114481
   5 H :   -0.619958
   6 H :   -0.509354
   7 O :    1.016131
   8 H :   -0.653999
   9 H :   -0.601884
  10 O :    1.099194
  11 H :   -0.430853
  12 H :   -0.420303
  13 O :    1.090608
  14 H :   -0.727743
  15 H :   -0.604292
  16 O :    1.012420
  17 H :   -0.468658
  18 C :    0.353575
  19 O :    0.832413
  20 H :   -0.190150
  21 H :   -0.636510
  22 H :   -0.181795
  23 H :   -0.186361

  Mayer bond orders larger than 0.100000
B(  0-H ,  1-O ) :   1.1456 B(  1-O ,  2-H ) :   0.6908 B(  1-O , 14-H ) :   0.2059
B(  3-H ,  4-O ) :   1.0879 B(  4-O ,  5-H ) :   0.8005 B(  6-H ,  7-O ) :   1.0420
B(  7-O ,  8-H ) :   0.7722 B(  9-H , 10-O ) :   0.8213 B( 10-O , 11-H ) :   1.0133
B( 12-H , 13-O ) :   1.0394 B( 13-O , 14-H ) :   0.7096 B( 15-H , 16-O ) :   0.9162
B( 16-O , 17-H ) :   0.9760 B( 18-C , 19-O ) :   0.9210 B( 18-C , 20-H ) :   0.9047
B( 18-C , 22-H ) :   0.9405 B( 18-C , 23-H ) :   0.8297 B( 19-O , 21-H ) :   0.7351

E(0)                                       ...   -571.589316981
E(0)                                       ...   -571.589316981
E(CORR)(strong-pairs)                      ...     -2.123959738
E(CORR)(weak-pairs)                        ...     -0.001883879
E(CORR)(corrected)                         ...     -2.125843617
E(TOT)                                     ...   -573.715160598
E(CCSD(T))                                 ...   -573.785414621
FINAL SINGLE POINT ENERGY      -573.785414621500
FINAL SINGLE POINT ENERGY (QM/QM2)    -1561.588418991460

DIPOLE MOMENT
-------------
                                X             Y             Z
Electronic contribution:     -0.47504      -1.78201      -0.44800
Nuclear contribution   :      1.40626       1.59969      -1.32010
                        -----------------------------------------
Total Dipole Moment    :      0.93122      -0.18232      -1.76811
                        -----------------------------------------
Magnitude (a.u.)       :      2.00664
Magnitude (Debye)      :      5.10048

Rotational constants in cm-1:     0.033382     0.021789     0.016688
Rotational constants in MHz :  1000.760267   653.204242   500.301689

                             ****ORCA TERMINATED NORMALLY****
TOTAL RUN TIME: 0 days 0 hours 29 minutes 14 seconds 922 msec
