                         Program Version 5.0.2 -  RELEASE  -
|  1> ! DLPNO-CCSD(T) aug-cc-pVTZ aug-cc-pVTZ/C TightPNO
|  2> %maxcore 500
|  3> %pal
|  4> nprocs 7
|  5> end
|  6> *xyzfile 0 1 mol_inp.xyz
|  7>
|  8>
|  9>                          ****END OF INPUT****

CARTESIAN COORDINATES (ANGSTROEM)
---------------------------------
  C     -1.868207   10.737395    7.827669
  O     -2.262538    9.382700    8.014584
  H     -2.772424   11.338518    7.793177
  H     -1.462500    8.828674    7.980387
  H     -1.248826   11.091164    8.655671
  H     -1.324497   10.881085    6.891201

 Total Charge           Charge          ....    0
 Multiplicity           Mult            ....    1
 Number of Electrons    NEL             ....   18
 Basis Dimension        Dim             ....  184

ORBITAL ENERGIES
----------------

  NO   OCC          E(Eh)            E(eV)
   0   2.0000     -20.560539      -559.4807
   1   2.0000     -11.271315      -306.7081
   2   2.0000      -1.353749       -36.8374
   3   2.0000      -0.924894       -25.1676
   4   2.0000      -0.687659       -18.7121
   5   2.0000      -0.619977       -16.8704
   6   2.0000      -0.593271       -16.1437
   7   2.0000      -0.503639       -13.7047
   8   2.0000      -0.451491       -12.2857
   9   0.0000       0.028434         0.7737
  10   0.0000       0.042825         1.1653
  11   0.0000       0.046655         1.2695
  12   0.0000       0.053057         1.4438
  13   0.0000       0.098828         2.6893

MULLIKEN ATOMIC CHARGES
-----------------------
   0 C :   -0.624433
   1 O :   -0.514510
   2 H :    0.324195
   3 H :    0.205917
   4 H :    0.299819
   5 H :    0.309013
Sum of atomic charges:    0.0000000

LOEWDIN ATOMIC CHARGES
----------------------
   0 C :    0.319856
   1 O :    0.756946
   2 H :   -0.200113
   3 H :   -0.492147
   4 H :   -0.192426
   5 H :   -0.192117

  Mayer bond orders larger than 0.100000
B(  0-C ,  1-O ) :   0.8220 B(  0-C ,  2-H ) :   0.9061 B(  0-C ,  4-H ) :   0.9071
B(  0-C ,  5-H ) :   0.8973 B(  1-O ,  3-H ) :   0.9765

E(0)                                       ...   -115.091294741
E(0)                                       ...   -115.091294741
E(CORR)(strong-pairs)                      ...     -0.454984043
E(CORR)(weak-pairs)                        ...     -0.000200587
E(CORR)(corrected)                         ...     -0.455184629
E(TOT)                                     ...   -115.546479370
E(CCSD(T))                                 ...   -115.561827055
FINAL SINGLE POINT ENERGY      -115.561827054901

DIPOLE MOMENT
-------------
                                X             Y             Z
Electronic contribution:     -0.61635      -1.62221       0.23624
Nuclear contribution   :      1.28070       1.86433      -0.34085
                        -----------------------------------------
Total Dipole Moment    :      0.66434       0.24212      -0.10462
                        -----------------------------------------
Magnitude (a.u.)       :      0.71479
Magnitude (Debye)      :      1.81684

Rotational constants in cm-1:     4.269809     0.824210     0.794708
Rotational constants in MHz : 128005.649962 24709.207319 23824.756219

                             ****ORCA TERMINATED NORMALLY****
TOTAL RUN TIME: 0 days 0 hours 1 minutes 44 seconds 109 msec
