                         Program Version 5.0.2 -  RELEASE  -
|  1> !QM/XTB2 DLPNO-CCSD(T) aug-cc-pVTZ aug-cc-pVTZ/C TightPNO
|  2> %maxcore 2000
|  3> %pal
|  4> nprocs 28
|  5> end
|  6> %qmmm
|  7> QMAtoms {177 178 179 363 364 365 441 442 443 471 472 473 504 505 506 582 583 584 } end
|  8> ActiveAtoms {177 178 179 363 364 365 441 442 443 471 472 473 504 505 506 582 583 584 } end
|  9> end
| 10> *xyzfile 0 1 surf_inp.xyz
| 11>
| 12>
| 13>                          ****END OF INPUT****
FINAL SINGLE POINT ENERGY (L-QM2)    -1018.340064750310
FINAL SINGLE POINT ENERGY (S-QM2)      -30.539249568290

CARTESIAN COORDINATES (ANGSTROEM)
---------------------------------
  H     -0.804062    6.340113    4.888402
  O     -1.378747    6.933561    5.445671
  H     -1.412110    7.795920    4.959173
  H     -1.908145    8.974657    3.345545
  O     -1.648145    9.297246    4.238129
  H     -2.511666    9.328457    4.717779
  H     -0.103643    5.827665   10.524840
  O     -0.828873    6.460308   10.542123
  H     -0.805058    6.863443    9.658288
  H     -3.483406    8.886433    6.595681
  O     -3.925177    8.866311    5.725402
  H     -4.083589    7.924209    5.541347
  H      0.579883    7.278753    7.496314
  O     -0.353610    7.304994    7.766540
  H     -0.807781    7.168631    6.867484
  H      0.437110    8.741559    4.172831
  O      1.092041    8.070323    3.953583
  H      1.295727    7.585341    4.777675

 Total Charge           Charge          ....    0
 Multiplicity           Mult            ....    1
 Number of Electrons    NEL             ....   60
 Basis Dimension        Dim             ....  552

ORBITAL ENERGIES
----------------

  NO   OCC          E(Eh)            E(eV)
   0   2.0000     -20.597511      -560.4868
   1   2.0000     -20.596806      -560.4676
   2   2.0000     -20.590667      -560.3005
   3   2.0000     -20.589149      -560.2592
   4   2.0000     -20.568871      -559.7074
   5   2.0000     -20.561021      -559.4938
   6   2.0000      -1.394593       -37.9488
   7   2.0000      -1.378521       -37.5115
   8   2.0000      -1.371151       -37.3109
   9   2.0000      -1.363467       -37.1018
  10   2.0000      -1.353348       -36.8265
  11   2.0000      -1.334857       -36.3233
  12   2.0000      -0.751858       -20.4591
  13   2.0000      -0.747128       -20.3304
  14   2.0000      -0.739042       -20.1104
  15   2.0000      -0.723867       -19.6974
  16   2.0000      -0.722797       -19.6683
  17   2.0000      -0.714606       -19.4454
  18   2.0000      -0.638513       -17.3748
  19   2.0000      -0.630173       -17.1479
  20   2.0000      -0.619792       -16.8654
  21   2.0000      -0.605924       -16.4880
  22   2.0000      -0.601075       -16.3561
  23   2.0000      -0.583849       -15.8873
  24   2.0000      -0.542286       -14.7563
  25   2.0000      -0.537244       -14.6192
  26   2.0000      -0.529628       -14.4119
  27   2.0000      -0.521359       -14.1869
  28   2.0000      -0.519108       -14.1256
  29   2.0000      -0.509507       -13.8644
  30   0.0000       0.017905         0.4872
  31   0.0000       0.033204         0.9035
  32   0.0000       0.038685         1.0527
  33   0.0000       0.044560         1.2125
  34   0.0000       0.048060         1.3078

MULLIKEN ATOMIC CHARGES
-----------------------
   0 H :    0.158156
   1 O :   -0.441075
   2 H :    0.362133
   3 H :    0.217729
   4 O :   -0.514816
   5 H :    0.318769
   6 H :    0.237934
   7 O :   -0.579940
   8 H :    0.352368
   9 H :    0.256339
  10 O :   -0.480978
  11 H :    0.251839
  12 H :    0.251622
  13 O :   -0.698517
  14 H :    0.301892
  15 H :    0.311916
  16 O :   -0.592619
  17 H :    0.287250
Sum of atomic charges:    0.0000000

LOEWDIN ATOMIC CHARGES
----------------------
   0 H :   -0.353736
   1 O :    1.117788
   2 H :   -0.693602
   3 H :   -0.374395
   4 O :    1.115435
   5 H :   -0.618746
   6 H :   -0.511887
   7 O :    1.008605
   8 H :   -0.660812
   9 H :   -0.429884
  10 O :    1.081428
  11 H :   -0.436232
  12 H :   -0.458496
  13 O :    1.039325
  14 H :   -0.764401
  15 H :   -0.603184
  16 O :    1.011042
  17 H :   -0.468248

  Mayer bond orders larger than 0.100000
B(  0-H ,  1-O ) :   1.1127 B(  1-O ,  2-H ) :   0.7846 B(  1-O , 14-H ) :   0.1920
B(  3-H ,  4-O ) :   1.0181 B(  4-O ,  5-H ) :   0.9050 B(  6-H ,  7-O ) :   0.9893
B(  7-O ,  8-H ) :   0.8686 B(  9-H , 10-O ) :   0.9602 B( 10-O , 11-H ) :   0.9749
B( 12-H , 13-O ) :   1.0082 B( 13-O , 14-H ) :   0.8179 B( 15-H , 16-O ) :   0.9332
B( 16-O , 17-H ) :   0.9825

E(0)                                       ...   -456.486457763
E(0)                                       ...   -456.486457763
E(CORR)(strong-pairs)                      ...     -1.661707080
E(CORR)(weak-pairs)                        ...     -0.001149276
E(CORR)(corrected)                         ...     -1.662856356
E(TOT)                                     ...   -458.149314119
E(CCSD(T))                                 ...   -458.202928856
FINAL SINGLE POINT ENERGY      -458.202928856189
FINAL SINGLE POINT ENERGY (QM/QM2)    -1446.003744038210

DIPOLE MOMENT
-------------
                                X             Y             Z
Electronic contribution:     -0.35240       0.62805      -0.35492
Nuclear contribution   :      0.39810      -0.95747      -1.49620
                        -----------------------------------------
Total Dipole Moment    :      0.04570      -0.32942      -1.85112
                        -----------------------------------------
Magnitude (a.u.)       :      1.88076
Magnitude (Debye)      :      4.78051

Rotational constants in cm-1:     0.056696     0.026044     0.019154
Rotational constants in MHz :  1699.701990   780.774808   574.209596

                             ****ORCA TERMINATED NORMALLY****
TOTAL RUN TIME: 0 days 0 hours 35 minutes 31 seconds 347 msec
