 Gaussian 16, Revision B.01,
 Gaussian 16:  ES64L-G16RevB.01 20-Dec-2017

 --------------------
 #P B97D3/aug-cc-pvtz
 --------------------

 -----
 Title
 -----
 Symbolic Z-matrix:
 Charge =  0 Multiplicity = 1

                         Standard orientation:
 ---------------------------------------------------------------------
 Center     Atomic      Atomic             Coordinates (Angstroms)
 Number     Number       Type             X           Y           Z
 ---------------------------------------------------------------------
      1          7           0        0.001693   -0.000417   -0.112613
      2          1           0       -0.577759   -0.748143    0.261486
      3          1           0       -0.370143    0.869148    0.260838
      4          1           0        0.936048   -0.118084    0.265967
 ---------------------------------------------------------------------

 SCF Done:  E(RB97D3) =  -56.5553226433     A.U. after    9 cycles

 The electronic state is 1-A.
 Alpha  occ. eigenvalues --  -13.97712  -0.78012  -0.41754  -0.41498  -0.22623
 Alpha virt. eigenvalues --   -0.02389   0.02171   0.02183   0.06362   0.08401
 Alpha virt. eigenvalues --    0.11081   0.11113   0.11660   0.11719   0.15673
 Alpha virt. eigenvalues --    0.15727   0.16528   0.25981   0.28710   0.29568

 Mulliken charges:
               1
     1  N   -0.391568
     2  H    0.131022
     3  H    0.130741
     4  H    0.129805
 Sum of Mulliken charges =  -0.00000

 Dipole moment (field-independent basis, Debye):
    X=             -0.0131    Y=              0.0035    Z=              1.4435  Tot=              1.4436
 Quadrupole moment (field-independent basis, Debye-Ang):
   XX=             -6.3492   YY=             -6.3935   ZZ=             -9.5097
   XY=             -0.0010   XZ=              0.0075   YZ=             -0.0013

 Normal termination of Gaussian 16 at Mon Feb  8 14:52:22 2021.
