                         Program Version 4.2.1 -  RELEASE  -
|  1> #------------------------------------------------------
|  2> # After the Orca calculation you will get two inter-
|  3> # action energies at the end of the output file. The
|  4> # difference is the negative BSSE.
|  5> #
|  6> # The script will set the orbital guess PModel for
|  7> # jobs 2-5 since Orca will try to use the .gbw-files of
|  8> # the earlier calculations which does not work for jobs
|  9> # 2 and 3 and does not help for jobs 4 and 5.
| 10> #------------------------------------------------------
| 11> #
| 12> #-------------------------
| 13> #     First the dimer
| 14> #-------------------------
| 15>
| 16> %id "dimer"
| 17> ! DLPNO-CCSD(T) aug-cc-pVTZ aug-cc-pVTZ/C TightPNO
| 18> %maxcore 2000
| 19> %pal
| 20> nprocs 10
| 21> end
| 22>
| 23> * xyz 0 1
| 24> H    -4.032191     1.098451     1.173608
| 25> O    -3.370558     1.764930     0.874455
| 26> H    -3.323649     2.459874     1.547512
| 27> H    -1.574002     1.352240    -1.340254
| 28> O    -1.154315     1.089873    -0.499249
| 29> H    -1.889127     1.257570     0.140384
| 30> H    -0.131786     2.486413    -0.165968
| 31> O     0.558513     3.156067     0.057796
| 32> H     0.836695     3.487372    -0.820038
| 33> H     2.578070    -1.391273    -1.706777
| 34> O     1.642568    -1.123429    -1.678447
| 35> H     1.714592    -0.204509    -1.338181
| 36> H     1.838960     1.913011    -0.076878
| 37> O     2.438024     1.258958    -0.497195
| 38> H     2.839374     0.690914     0.211344
| 39> H    -1.092670    -0.635047    -0.861770
| 40> O    -0.979992    -1.588273    -1.082861
| 41> H    -0.030808    -1.621038    -1.331609
| 42> H     2.737675    -1.142291     1.280713
| 43> O     3.540209    -0.582465     1.107416
| 44> H     4.037450    -1.050467     0.421671
| 45> H    -2.674630    -2.059703    -0.112586
| 46> O    -3.625795    -2.189787     0.040638
| 47> H    -4.033704    -1.837860    -0.779805
| 48> N     1.084975    -1.872226     1.690367
| 49> H     0.695291    -1.357888     2.475194
| 50> H     1.087598    -2.852390     1.956626
| 51> H     0.432792    -1.774787     0.913819
| 52> *
| 53>
| 54> #--------------------------
| 55> #   Now the fragments at
| 56> #      dimer-geometry
| 57> #-------------------------
| 58>
| 59> $new_job
| 60> %id "fragment"
| 61> %scf guess PModel end
| 62> ! DLPNO-CCSD(T) aug-cc-pVTZ aug-cc-pVTZ/C TightPNO
| 63> %maxcore 2000
| 64> %pal
| 65> nprocs 10
| 66> end
| 67>
| 68> * xyz 0 1
| 69> H    -4.032191     1.098451     1.173608
| 70> O    -3.370558     1.764930     0.874455
| 71> H    -3.323649     2.459874     1.547512
| 72> H    -1.574002     1.352240    -1.340254
| 73> O    -1.154315     1.089873    -0.499249
| 74> H    -1.889127     1.257570     0.140384
| 75> H    -0.131786     2.486413    -0.165968
| 76> O     0.558513     3.156067     0.057796
| 77> H     0.836695     3.487372    -0.820038
| 78> H     2.578070    -1.391273    -1.706777
| 79> O     1.642568    -1.123429    -1.678447
| 80> H     1.714592    -0.204509    -1.338181
| 81> H     1.838960     1.913011    -0.076878
| 82> O     2.438024     1.258958    -0.497195
| 83> H     2.839374     0.690914     0.211344
| 84> H    -1.092670    -0.635047    -0.861770
| 85> O    -0.979992    -1.588273    -1.082861
| 86> H    -0.030808    -1.621038    -1.331609
| 87> H     2.737675    -1.142291     1.280713
| 88> O     3.540209    -0.582465     1.107416
| 89> H     4.037450    -1.050467     0.421671
| 90> H    -2.674630    -2.059703    -0.112586
| 91> O    -3.625795    -2.189787     0.040638
| 92> H    -4.033704    -1.837860    -0.779805
| 93> *
| 94>
| 95> $new_job
| 96> %id "fragment"
| 97> %scf guess PModel end
| 98> ! DLPNO-CCSD(T) aug-cc-pVTZ aug-cc-pVTZ/C TightPNO
| 99> %maxcore 2000
|100> %pal
|101> nprocs 10
|102> end
|103>
|104> * xyz 0 1
|105> N     1.084975    -1.872226     1.690367
|106> H     0.695291    -1.357888     2.475194
|107> H     1.087598    -2.852390     1.956626
|108> H     0.432792    -1.774787     0.913819
|109> *
|110>
|111> #--------------------------
|112> #   Now the fragments at
|113> #   dimer-geometry with
|114> #     the dimer-basis
|115> #-------------------------
|116>
|117> $new_job
|118> %id "ghost"
|119> %scf guess PModel end
|120> ! DLPNO-CCSD(T) aug-cc-pVTZ aug-cc-pVTZ/C TightPNO
|121> %maxcore 2000
|122> %pal
|123> nprocs 10
|124> end
|125>
|126> * xyz 0 1
|127> H         -4.032191     1.098451     1.173608
|128> O         -3.370558     1.764930     0.874455
|129> H         -3.323649     2.459874     1.547512
|130> H         -1.574002     1.352240    -1.340254
|131> O         -1.154315     1.089873    -0.499249
|132> H         -1.889127     1.257570     0.140384
|133> H         -0.131786     2.486413    -0.165968
|134> O          0.558513     3.156067     0.057796
|135> H          0.836695     3.487372    -0.820038
|136> H          2.578070    -1.391273    -1.706777
|137> O          1.642568    -1.123429    -1.678447
|138> H          1.714592    -0.204509    -1.338181
|139> H          1.838960     1.913011    -0.076878
|140> O          2.438024     1.258958    -0.497195
|141> H          2.839374     0.690914     0.211344
|142> H         -1.092670    -0.635047    -0.861770
|143> O         -0.979992    -1.588273    -1.082861
|144> H         -0.030808    -1.621038    -1.331609
|145> H          2.737675    -1.142291     1.280713
|146> O          3.540209    -0.582465     1.107416
|147> H          4.037450    -1.050467     0.421671
|148> H         -2.674630    -2.059703    -0.112586
|149> O         -3.625795    -2.189787     0.040638
|150> H         -4.033704    -1.837860    -0.779805
|151> N :        1.084975    -1.872226     1.690367
|152> H :        0.695291    -1.357888     2.475194
|153> H :        1.087598    -2.852390     1.956626
|154> H :        0.432792    -1.774787     0.913819
|155> *
|156>
|157> $new_job
|158> %id "ghost"
|159> %scf guess PModel end
|160> ! DLPNO-CCSD(T) aug-cc-pVTZ aug-cc-pVTZ/C TightPNO
|161> %maxcore 2000
|162> %pal
|163> nprocs 10
|164> end
|165>
|166> * xyz 0 1
|167> H :       -4.032191     1.098451     1.173608
|168> O :       -3.370558     1.764930     0.874455
|169> H :       -3.323649     2.459874     1.547512
|170> H :       -1.574002     1.352240    -1.340254
|171> O :       -1.154315     1.089873    -0.499249
|172> H :       -1.889127     1.257570     0.140384
|173> H :       -0.131786     2.486413    -0.165968
|174> O :        0.558513     3.156067     0.057796
|175> H :        0.836695     3.487372    -0.820038
|176> H :        2.578070    -1.391273    -1.706777
|177> O :        1.642568    -1.123429    -1.678447
|178> H :        1.714592    -0.204509    -1.338181
|179> H :        1.838960     1.913011    -0.076878
|180> O :        2.438024     1.258958    -0.497195
|181> H :        2.839374     0.690914     0.211344
|182> H :       -1.092670    -0.635047    -0.861770
|183> O :       -0.979992    -1.588273    -1.082861
|184> H :       -0.030808    -1.621038    -1.331609
|185> H :        2.737675    -1.142291     1.280713
|186> O :        3.540209    -0.582465     1.107416
|187> H :        4.037450    -1.050467     0.421671
|188> H :       -2.674630    -2.059703    -0.112586
|189> O :       -3.625795    -2.189787     0.040638
|190> H :       -4.033704    -1.837860    -0.779805
|191> N          1.084975    -1.872226     1.690367
|192> H          0.695291    -1.357888     2.475194
|193> H          1.087598    -2.852390     1.956626
|194> H          0.432792    -1.774787     0.913819
|195> *
|196>
|197>
|198>                          ****END OF INPUT****
 Total Charge           Charge          ....    0
 Multiplicity           Mult            ....    1
 Number of Electrons    NEL             ....   90
E(0)                                       ...   -664.733016120
E(0)                                       ...   -664.733016120
E(CORR)(strong-pairs)                      ...     -2.481786198
E(CORR)(weak-pairs)                        ...     -0.002514774
E(CORR)(corrected)                         ...     -2.484300972
E(TOT)                                     ...   -667.217317092
FINAL SINGLE POINT ENERGY      -667.299376956848
FINAL SINGLE POINT ENERGY      -610.797286363943
FINAL SINGLE POINT ENERGY       -56.480436617254
FINAL SINGLE POINT ENERGY      -610.798215671074

CARTESIAN COORDINATES (ANGSTROEM)
---------------------------------
  H     -4.032191    1.098451    1.173608
  O     -3.370558    1.764930    0.874455
  H     -3.323649    2.459874    1.547512
  H     -1.574002    1.352240   -1.340254
  O     -1.154315    1.089873   -0.499249
  H     -1.889127    1.257570    0.140384
  H     -0.131786    2.486413   -0.165968
  O      0.558513    3.156067    0.057796
  H      0.836695    3.487372   -0.820038
  H      2.578070   -1.391273   -1.706777
  O      1.642568   -1.123429   -1.678447
  H      1.714592   -0.204509   -1.338181
  H      1.838960    1.913011   -0.076878
  O      2.438024    1.258958   -0.497195
  H      2.839374    0.690914    0.211344
  H     -1.092670   -0.635047   -0.861770
  O     -0.979992   -1.588273   -1.082861
  H     -0.030808   -1.621038   -1.331609
  H      2.737675   -1.142291    1.280713
  O      3.540209   -0.582465    1.107416
  H      4.037450   -1.050467    0.421671
  H     -2.674630   -2.059703   -0.112586
  O     -3.625795   -2.189787    0.040638
  H     -4.033704   -1.837860   -0.779805
  N      1.084975   -1.872226    1.690367
  H      0.695291   -1.357888    2.475194
  H      1.087598   -2.852390    1.956626
  H      0.432792   -1.774787    0.913819

 Multiplicity           Mult            ....    1
 Number of Electrons    NEL             ....   10
 Basis Dimension        Dim             ....  851

ORBITAL ENERGIES
----------------

  NO   OCC          E(Eh)            E(eV)
   0   2.0000     -15.543124      -422.9499
   1   2.0000      -1.139611       -31.0104
   2   2.0000      -0.627361       -17.0713
   3   2.0000      -0.626893       -17.0586
   4   2.0000      -0.428503       -11.6601
   5   0.0000       0.015586         0.4241
   6   0.0000       0.030479         0.8294
   7   0.0000       0.032069         0.8726
   8   0.0000       0.035015         0.9528
   9   0.0000       0.048493         1.3196

MULLIKEN ATOMIC CHARGES
-----------------------
   0 H :   -0.000071
   1 O :    0.000162
   2 H :    0.000045
   3 H :    0.000290
   4 O :   -0.007199
   5 H :    0.000936
   6 H :   -0.000037
   7 O :   -0.000150
   8 H :    0.000095
   9 H :   -0.000507
  10 O :   -0.005531
  11 H :    0.001987
  12 H :   -0.001638
  13 O :    0.001498
  14 H :    0.000163
  15 H :    0.001562
  16 O :   -0.001207
  17 H :   -0.001921
  18 H :   -0.016409
  19 O :    0.012468
  20 H :    0.000085
  21 H :   -0.002028
  22 O :   -0.000391
  23 H :    0.000027
  24 N :   -0.411492
  25 H :    0.091043
  26 H :    0.087384
  27 H :    0.250832
Sum of atomic charges:    0.0000000

LOEWDIN ATOMIC CHARGES
----------------------
   0 H :   -0.000030
   1 O :   -0.000019
   2 H :   -0.000015
   3 H :   -0.000147
   4 O :   -0.001237
   5 H :   -0.000370
   6 H :   -0.000165
   7 O :   -0.000031
   8 H :   -0.000019
   9 H :   -0.002058
  10 O :   -0.008549
  11 H :   -0.004171
  12 H :   -0.000660
  13 O :   -0.002306
  14 H :   -0.005739
  15 H :   -0.006783
  16 O :   -0.015530
  17 H :   -0.016808
  18 H :   -0.220819
  19 O :   -0.034953
  20 H :   -0.009380
  21 H :   -0.001346
  22 O :   -0.000279
  23 H :   -0.000082
  24 N :    1.236474
  25 H :   -0.300214
  26 H :   -0.304039
  27 H :   -0.300725

  Mayer bond orders larger than 0.100000
B( 24-N , 25-H ) :   1.0661 B( 24-N , 26-H ) :   1.0842 B( 24-N , 27-H ) :   0.8995

E(0)                                       ...    -56.220069386
E(CORR)(strong-pairs)                      ...     -0.252843189
E(CORR)(weak-pairs)                        ...     -0.000060209
E(CORR)(corrected)                         ...     -0.252903398
E(TOT)                                     ...    -56.472972784
E(CCSD(T))                                 ...    -56.481139269
FINAL SINGLE POINT ENERGY       -56.481139268543

DIPOLE MOMENT
-------------
                                X             Y             Z
Electronic contribution:      0.22496       0.07981      -0.05952
Nuclear contribution   :     -0.80154      -0.28413       0.21174
                        -----------------------------------------
Total Dipole Moment    :     -0.57657      -0.20431       0.15223
                        -----------------------------------------
Magnitude (a.u.)       :      0.63036
Magnitude (Debye)      :      1.60225

Rotational constants in cm-1:     9.942397     9.853218     6.260173
Rotational constants in MHz : 298065.571184 295392.049594 187675.258258

                             ****ORCA TERMINATED NORMALLY****
TOTAL RUN TIME: 0 days 2 hours 25 minutes 47 seconds 478 msec
