                         Program Version 5.0.1 -  RELEASE  -
|  1> ! DLPNO-CCSD(T) aug-cc-pVTZ aug-cc-pVTZ/C TightPNO
|  2> %pal
|  3> nprocs 1
|  4> end
|  5> *xyzfile 0 1 h2o.xyz
|  6>
|  7>
|  8>                          ****END OF INPUT****

CARTESIAN COORDINATES (ANGSTROEM)
---------------------------------
  H     -0.479911   -0.297004   -3.201924
  O      0.378889   -0.699256   -3.034964
  H      1.005995   -0.047602   -3.365574

 Total Charge           Charge          ....    0
 Multiplicity           Mult            ....    1
 Number of Electrons    NEL             ....   10
 Basis Dimension        Dim             ....   92

ORBITAL ENERGIES
----------------

  NO   OCC          E(Eh)            E(eV)
   0   2.0000     -20.568512      -559.6977
   1   2.0000      -1.351189       -36.7677
   2   2.0000      -0.713363       -19.4116
   3   2.0000      -0.585250       -15.9255
   4   2.0000      -0.510103       -13.8806
   5   0.0000       0.029327         0.7980
   6   0.0000       0.047706         1.2982
   7   0.0000       0.135836         3.6963
   8   0.0000       0.158912         4.3242
   9   0.0000       0.175177         4.7668

MULLIKEN ATOMIC CHARGES
-----------------------
   0 H :    0.223635
   1 O :   -0.447269
   2 H :    0.223634
Sum of atomic charges:   -0.0000000

LOEWDIN ATOMIC CHARGES
----------------------
   0 H :   -0.510651
   1 O :    1.021304
   2 H :   -0.510654

  Mayer bond orders larger than 0.100000
B(  0-H ,  1-O ) :   0.9962 B(  1-O ,  2-H ) :   0.9962

E(0)                                       ...    -76.060127352
E(0)                                       ...    -76.060127352
E(CORR)(strong-pairs)                      ...     -0.273633746
E(CORR)(weak-pairs)                        ...     -0.000032530
E(CORR)(corrected)                         ...     -0.273666277
E(TOT)                                     ...    -76.333793629
E(CCSD(T))                                 ...    -76.342142641
FINAL SINGLE POINT ENERGY       -76.342142640602

DIPOLE MOMENT
-------------
                                X             Y             Z
Electronic contribution:      0.03951      -0.17972       0.08485
Nuclear contribution   :     -0.19285       0.87723      -0.41416
                        -----------------------------------------
Total Dipole Moment    :     -0.15334       0.69751      -0.32931
                        -----------------------------------------
Magnitude (a.u.)       :      0.78644
Magnitude (Debye)      :      1.99896

Rotational constants in cm-1:    26.673507    14.562119     9.419592
Rotational constants in MHz : 799651.632818 436561.334848 282392.268458

                             ****ORCA TERMINATED NORMALLY****
TOTAL RUN TIME: 0 days 0 hours 1 minutes 9 seconds 910 msec
