                         Program Version 5.0.1 -  RELEASE  -
|  1> !QM/XTB2 DLPNO-CCSD(T) aug-cc-pVTZ aug-cc-pVTZ/C TightPNO
|  2> %maxcore 2000
|  3> %pal
|  4> nprocs 24
|  5> end
|  6> %qmmm
|  7> QMAtoms {99 100 101 150 151 152 234 235 236 246 247 248 309 310 311 351 352 353 354 355 356 405 406 407 519 520 521 558 559 560 } end
|  8> ActiveAtoms {99 100 101 150 151 152 234 235 236 246 247 248 309 310 311 351 352 353 354 355 356 405 406 407 519 520 521 558 559 560 } end
|  9> end
| 10> *xyzfile 0 1 cluster_opt.xyz
| 11>
| 12>
| 13>                          ****END OF INPUT****
FINAL SINGLE POINT ENERGY (L-QM2)    -1018.337959131590
FINAL SINGLE POINT ENERGY (S-QM2)      -50.918866630100

CARTESIAN COORDINATES (ANGSTROEM)
---------------------------------
  H      0.440167   -3.430819   -3.958690
  O      1.276830   -3.099200   -4.351579
  H      0.950993   -2.680051   -5.171356
  H     -1.605240   -0.804449   -4.489321
  O     -1.096377   -0.581424   -5.295702
  H     -0.381030   -0.001347   -4.979458
  H      2.230281   -4.657820   -6.780303
  O      2.101212   -5.109787   -5.936912
  H      1.815196   -4.399158   -5.308068
  H      3.353712   -2.677908   -8.487131
  O      3.232315   -3.165507   -7.656518
  H      4.116218   -3.133885   -7.237863
  H      3.225228   -0.883670   -5.674038
  O      2.372041   -1.017121   -6.144482
  H      2.493789   -1.839693   -6.657255
  H      1.801735   -0.147072   -7.525094
  O      1.396816    0.305092   -8.306153
  H      1.946627    0.033674   -9.044555
  H      4.953877   -1.408422   -9.330353
  O      4.021138   -1.167260   -9.579207
  H      4.025404   -1.188749  -10.540116
  H     -2.849168   -4.006720   -6.105781
  O     -2.069068   -4.552000   -5.901966
  H     -1.795267   -4.269020   -4.999478
  H     -0.652117    0.339906   -8.091123
  O     -1.518952    0.646843   -7.781523
  H     -1.627868    0.205009   -6.920629
  H     -0.697333   -3.377602   -6.671596
  O     -0.057442   -2.651614   -6.738651
  H     -0.523361   -1.908055   -6.305362

 Total Charge           Charge          ....    0
 Multiplicity           Mult            ....    1
 Number of Electrons    NEL             ....  100
 Basis Dimension        Dim             ....  920

ORBITAL ENERGIES
----------------

  NO   OCC          E(Eh)            E(eV)
   0   2.0000     -20.625011      -561.2351
   1   2.0000     -20.623167      -561.1849
   2   2.0000     -20.618070      -561.0462
   3   2.0000     -20.606456      -560.7302
   4   2.0000     -20.606283      -560.7255
   5   2.0000     -20.599147      -560.5313
   6   2.0000     -20.581510      -560.0514
   7   2.0000     -20.569141      -559.7148
   8   2.0000     -20.567130      -559.6601
   9   2.0000     -20.554637      -559.3201
  10   2.0000      -1.409235       -38.3472
  11   2.0000      -1.406708       -38.2785
  12   2.0000      -1.399554       -38.0838
  13   2.0000      -1.396848       -38.0102
  14   2.0000      -1.393653       -37.9232
  15   2.0000      -1.382864       -37.6296
  16   2.0000      -1.363102       -37.0919
  17   2.0000      -1.354783       -36.8655
  18   2.0000      -1.350456       -36.7478
  19   2.0000      -1.337901       -36.4061
  20   2.0000      -0.767623       -20.8881
  21   2.0000      -0.766061       -20.8456
  22   2.0000      -0.760308       -20.6890
  23   2.0000      -0.754665       -20.5355
  24   2.0000      -0.751245       -20.4424
  25   2.0000      -0.748619       -20.3709
  26   2.0000      -0.736233       -20.0339
  27   2.0000      -0.734301       -19.9814
  28   2.0000      -0.728337       -19.8190
  29   2.0000      -0.711693       -19.3662
  30   2.0000      -0.660326       -17.9684
  31   2.0000      -0.653271       -17.7764
  32   2.0000      -0.646219       -17.5845
  33   2.0000      -0.638920       -17.3859
  34   2.0000      -0.636960       -17.3326
  35   2.0000      -0.636184       -17.3114
  36   2.0000      -0.617598       -16.8057
  37   2.0000      -0.603972       -16.4349
  38   2.0000      -0.600455       -16.3392
  39   2.0000      -0.576496       -15.6873
  40   2.0000      -0.566136       -15.4053
  41   2.0000      -0.558774       -15.2050
  42   2.0000      -0.554828       -15.0976
  43   2.0000      -0.549058       -14.9406
  44   2.0000      -0.544752       -14.8235
  45   2.0000      -0.537180       -14.6174
  46   2.0000      -0.530617       -14.4388
  47   2.0000      -0.524920       -14.2838
  48   2.0000      -0.514039       -13.9877
  49   2.0000      -0.504240       -13.7211
  50   0.0000      -0.000625        -0.0170
  51   0.0000       0.010137         0.2759
  52   0.0000       0.019446         0.5291
  53   0.0000       0.023119         0.6291
  54   0.0000       0.033853         0.9212

MULLIKEN ATOMIC CHARGES
-----------------------
   0 H :    0.163743
   1 O :   -0.629124
   2 H :    0.671021
   3 H :    0.186154
   4 O :   -0.445210
   5 H :    0.235186
   6 H :    0.342812
   7 O :   -0.809274
   8 H :    0.356286
   9 H :    0.333479
  10 O :   -0.531340
  11 H :    0.190215
  12 H :    0.129048
  13 O :   -0.514592
  14 H :    0.455052
  15 H :    0.398180
  16 O :   -0.703267
  17 H :    0.245726
  18 H :    0.251691
  19 O :   -0.441865
  20 H :    0.157169
  21 H :    0.236975
  22 O :   -0.560819
  23 H :    0.314272
  24 H :    0.357085
  25 O :   -0.692983
  26 H :    0.359994
  27 H :    0.247551
  28 O :   -0.699612
  29 H :    0.396446
Sum of atomic charges:   -0.0000000

LOEWDIN ATOMIC CHARGES
----------------------
   0 H :   -0.406277
   1 O :    1.092460
   2 H :   -0.686635
   3 H :   -0.376515
   4 O :    1.135491
   5 H :   -0.386663
   6 H :   -0.637201
   7 O :    1.014331
   8 H :   -0.741454
   9 H :   -0.570508
  10 O :    1.133264
  11 H :   -0.385823
  12 H :   -0.381584
  13 O :    1.098786
  14 H :   -0.645388
  15 H :   -0.703187
  16 O :    1.068320
  17 H :   -0.528392
  18 H :   -0.393880
  19 O :    1.056050
  20 H :   -0.469542
  21 H :   -0.444592
  22 O :    1.030212
  23 H :   -0.443315
  24 H :   -0.630025
  25 O :    1.025753
  26 H :   -0.674474
  27 H :   -0.593110
  28 O :    1.118028
  29 H :   -0.674134

  Mayer bond orders larger than 0.100000
B(  0-H ,  1-O ) :   1.1165 B(  1-O ,  2-H ) :   0.4976 B(  1-O ,  8-H ) :   0.1220
B(  3-H ,  4-O ) :   1.0376 B(  4-O ,  5-H ) :   0.9967 B(  6-H ,  7-O ) :   0.8931
B(  7-O ,  8-H ) :   0.7475 B(  9-H , 10-O ) :   0.8943 B( 10-O , 11-H ) :   1.0538
B( 12-H , 13-O ) :   1.1274 B( 13-O , 14-H ) :   0.8315 B( 15-H , 16-O ) :   0.6794
B( 16-O , 17-H ) :   1.0308 B( 18-H , 19-O ) :   0.9869 B( 19-O , 20-H ) :   1.0480
B( 21-H , 22-O ) :   0.9918 B( 22-O , 23-H ) :   0.9185 B( 24-H , 25-O ) :   0.8526
B( 25-O , 26-H ) :   0.8459 B( 27-H , 28-O ) :   1.0682 B( 28-O , 29-H ) :   0.7861

E(0)                                       ...   -760.825906082
E(0)                                       ...   -760.825906082
E(CORR)(strong-pairs)                      ...     -2.773863903
E(CORR)(weak-pairs)                        ...     -0.002517372
E(CORR)(corrected)                         ...     -2.776381275
E(TOT)                                     ...   -763.602287357
E(CCSD(T))                                 ...   -763.692227496
FINAL SINGLE POINT ENERGY      -763.692227496473
FINAL SINGLE POINT ENERGY (QM/QM2)    -1731.111319997963

DIPOLE MOMENT
-------------
                                X             Y             Z
Electronic contribution:     -0.02634      -0.08868      -0.27210
Nuclear contribution   :      1.58549       0.45622       0.92210
                        -----------------------------------------
Total Dipole Moment    :      1.55915       0.36754       0.65000
                        -----------------------------------------
Magnitude (a.u.)       :      1.72874
Magnitude (Debye)      :      4.39411

Rotational constants in cm-1:     0.019244     0.016076     0.010800
Rotational constants in MHz :   576.912932   481.939494   323.776775

                             ****ORCA TERMINATED NORMALLY****
TOTAL RUN TIME: 0 days 1 hours 51 minutes 58 seconds 132 msec
