                         Program Version 5.0.1 -  RELEASE  -
|  1> #------------------------------------------------------
|  2> # After the Orca calculation you will get two inter-
|  3> # action energies at the end of the output file. The
|  4> # difference is the negative BSSE.
|  5> #
|  6> # The script will set the orbital guess PModel for
|  7> # jobs 2-5 since Orca will try to use the .gbw-files of
|  8> # the earlier calculations which does not work for jobs
|  9> # 2 and 3 and does not help for jobs 4 and 5.
| 10> #------------------------------------------------------
| 11> #
| 12> #-------------------------
| 13> #     First the dimer
| 14> #-------------------------
| 15>
| 16> %id "dimer"
| 17> ! DLPNO-CCSD(T) aug-cc-pVTZ aug-cc-pVTZ/C TightPNO
| 18> %maxcore 2000
| 19> %pal
| 20> nprocs 24
| 21> end
| 22>
| 23> * xyz 0 1
| 24> H     0.391949    -3.317476    -4.063161
| 25> O     1.296960    -3.058803    -4.337863
| 26> H     1.189238    -2.429247    -5.067851
| 27> H    -1.549127    -0.824046    -4.507469
| 28> O    -1.025714    -0.642019    -5.313231
| 29> H    -0.348056    -0.003518    -5.024863
| 30> H     2.243736    -4.636255    -6.794103
| 31> O     2.089702    -5.073894    -5.946862
| 32> H     1.792765    -4.349585    -5.343095
| 33> H     3.347702    -2.623525    -8.494349
| 34> O     3.244860    -3.112393    -7.656713
| 35> H     4.140686    -3.098972    -7.264682
| 36> H     3.197332    -0.942297    -5.577649
| 37> O     2.352537    -1.120134    -6.056423
| 38> H     2.584882    -1.860878    -6.664366
| 39> H     1.817536    -0.163729    -7.478120
| 40> O     1.349103     0.253338    -8.231844
| 41> H     1.327176    -0.443478    -8.908223
| 42> H     4.979964    -1.411410    -9.335950
| 43> O     4.035994    -1.153625    -9.492029
| 44> H     3.950221    -1.072320    -10.445059
| 45> H    -2.852999    -3.979955    -6.094915
| 46> O    -2.064013    -4.518984    -5.905577
| 47> H    -1.787290    -4.246468    -4.999070
| 48> H    -0.437480     0.447868    -7.998563
| 49> O    -1.382865     0.653247    -7.829830
| 50> H    -1.563769     0.198241    -6.992196
| 51> H    -0.780581    -3.427894    -6.759168
| 52> O    -0.148399    -2.712146    -6.945719
| 53> H    -0.511693    -1.957472    -6.441322
| 54> O     0.759477    -2.177936    -9.478327
| 55> H     0.348828    -2.422848    -8.616798
| 56> H     0.031677    -2.184519    -10.105218
| 57> *
| 58>
| 59> #--------------------------
| 60> #   Now the fragments at
| 61> #      dimer-geometry
| 62> #-------------------------
| 63>
| 64> $new_job
| 65> %id "fragment"
| 66> %scf guess PModel end
| 67> ! DLPNO-CCSD(T) aug-cc-pVTZ aug-cc-pVTZ/C TightPNO
| 68> %maxcore 2000
| 69> %pal
| 70> nprocs 24
| 71> end
| 72>
| 73> * xyz 0 1
| 74> H     0.391949    -3.317476    -4.063161
| 75> O     1.296960    -3.058803    -4.337863
| 76> H     1.189238    -2.429247    -5.067851
| 77> H    -1.549127    -0.824046    -4.507469
| 78> O    -1.025714    -0.642019    -5.313231
| 79> H    -0.348056    -0.003518    -5.024863
| 80> H     2.243736    -4.636255    -6.794103
| 81> O     2.089702    -5.073894    -5.946862
| 82> H     1.792765    -4.349585    -5.343095
| 83> H     3.347702    -2.623525    -8.494349
| 84> O     3.244860    -3.112393    -7.656713
| 85> H     4.140686    -3.098972    -7.264682
| 86> H     3.197332    -0.942297    -5.577649
| 87> O     2.352537    -1.120134    -6.056423
| 88> H     2.584882    -1.860878    -6.664366
| 89> H     1.817536    -0.163729    -7.478120
| 90> O     1.349103     0.253338    -8.231844
| 91> H     1.327176    -0.443478    -8.908223
| 92> H     4.979964    -1.411410    -9.335950
| 93> O     4.035994    -1.153625    -9.492029
| 94> H     3.950221    -1.072320    -10.445059
| 95> H    -2.852999    -3.979955    -6.094915
| 96> O    -2.064013    -4.518984    -5.905577
| 97> H    -1.787290    -4.246468    -4.999070
| 98> H    -0.437480     0.447868    -7.998563
| 99> O    -1.382865     0.653247    -7.829830
|100> H    -1.563769     0.198241    -6.992196
|101> H    -0.780581    -3.427894    -6.759168
|102> O    -0.148399    -2.712146    -6.945719
|103> H    -0.511693    -1.957472    -6.441322
|104> *
|105>
|106> $new_job
|107> %id "fragment"
|108> %scf guess PModel end
|109> ! DLPNO-CCSD(T) aug-cc-pVTZ aug-cc-pVTZ/C TightPNO
|110> %maxcore 2000
|111> %pal
|112> nprocs 6
|113> end
|114>
|115> * xyz 0 1
|116> O     0.759477    -2.177936    -9.478327
|117> H     0.348828    -2.422848    -8.616798
|118> H     0.031677    -2.184519    -10.105218
|119> *
|120>
|121> #--------------------------
|122> #   Now the fragments at
|123> #   dimer-geometry with
|124> #     the dimer-basis
|125> #-------------------------
|126>
|127> $new_job
|128> %id "ghost"
|129> %scf guess PModel end
|130> ! DLPNO-CCSD(T) aug-cc-pVTZ aug-cc-pVTZ/C TightPNO
|131> %maxcore 2000
|132> %pal
|133> nprocs 24
|134> end
|135>
|136> * xyz 0 1
|137> H          0.391949    -3.317476    -4.063161
|138> O          1.296960    -3.058803    -4.337863
|139> H          1.189238    -2.429247    -5.067851
|140> H         -1.549127    -0.824046    -4.507469
|141> O         -1.025714    -0.642019    -5.313231
|142> H         -0.348056    -0.003518    -5.024863
|143> H          2.243736    -4.636255    -6.794103
|144> O          2.089702    -5.073894    -5.946862
|145> H          1.792765    -4.349585    -5.343095
|146> H          3.347702    -2.623525    -8.494349
|147> O          3.244860    -3.112393    -7.656713
|148> H          4.140686    -3.098972    -7.264682
|149> H          3.197332    -0.942297    -5.577649
|150> O          2.352537    -1.120134    -6.056423
|151> H          2.584882    -1.860878    -6.664366
|152> H          1.817536    -0.163729    -7.478120
|153> O          1.349103     0.253338    -8.231844
|154> H          1.327176    -0.443478    -8.908223
|155> H          4.979964    -1.411410    -9.335950
|156> O          4.035994    -1.153625    -9.492029
|157> H          3.950221    -1.072320    -10.445059
|158> H         -2.852999    -3.979955    -6.094915
|159> O         -2.064013    -4.518984    -5.905577
|160> H         -1.787290    -4.246468    -4.999070
|161> H         -0.437480     0.447868    -7.998563
|162> O         -1.382865     0.653247    -7.829830
|163> H         -1.563769     0.198241    -6.992196
|164> H         -0.780581    -3.427894    -6.759168
|165> O         -0.148399    -2.712146    -6.945719
|166> H         -0.511693    -1.957472    -6.441322
|167> O :        0.759477    -2.177936    -9.478327
|168> H :        0.348828    -2.422848    -8.616798
|169> H :        0.031677    -2.184519    -10.105218
|170> *
|171>
|172> $new_job
|173> %id "ghost"
|174> %scf guess PModel end
|175> ! DLPNO-CCSD(T) aug-cc-pVTZ aug-cc-pVTZ/C TightPNO
|176> %maxcore 2000
|177> %pal
|178> nprocs 6
|179> end
|180>
|181> * xyz 0 1
|182> H :        0.391949    -3.317476    -4.063161
|183> O :        1.296960    -3.058803    -4.337863
|184> H :        1.189238    -2.429247    -5.067851
|185> H :       -1.549127    -0.824046    -4.507469
|186> O :       -1.025714    -0.642019    -5.313231
|187> H :       -0.348056    -0.003518    -5.024863
|188> H :        2.243736    -4.636255    -6.794103
|189> O :        2.089702    -5.073894    -5.946862
|190> H :        1.792765    -4.349585    -5.343095
|191> H :        3.347702    -2.623525    -8.494349
|192> O :        3.244860    -3.112393    -7.656713
|193> H :        4.140686    -3.098972    -7.264682
|194> H :        3.197332    -0.942297    -5.577649
|195> O :        2.352537    -1.120134    -6.056423
|196> H :        2.584882    -1.860878    -6.664366
|197> H :        1.817536    -0.163729    -7.478120
|198> O :        1.349103     0.253338    -8.231844
|199> H :        1.327176    -0.443478    -8.908223
|200> H :        4.979964    -1.411410    -9.335950
|201> O :        4.035994    -1.153625    -9.492029
|202> H :        3.950221    -1.072320    -10.445059
|203> H :       -2.852999    -3.979955    -6.094915
|204> O :       -2.064013    -4.518984    -5.905577
|205> H :       -1.787290    -4.246468    -4.999070
|206> H :       -0.437480     0.447868    -7.998563
|207> O :       -1.382865     0.653247    -7.829830
|208> H :       -1.563769     0.198241    -6.992196
|209> H :       -0.780581    -3.427894    -6.759168
|210> O :       -0.148399    -2.712146    -6.945719
|211> H :       -0.511693    -1.957472    -6.441322
|212> O          0.759477    -2.177936    -9.478327
|213> H          0.348828    -2.422848    -8.616798
|214> H          0.031677    -2.184519    -10.105218
|215> *
|216>
|217>
|218>                          ****END OF INPUT****
 Total Charge           Charge          ....    0
 Multiplicity           Mult            ....    1
 Number of Electrons    NEL             ....  110
E(0)                                       ...   -836.676934483
E(0)                                       ...   -836.676934483
E(CORR)(strong-pairs)                      ...     -3.063999727
E(CORR)(weak-pairs)                        ...     -0.003098845
E(CORR)(corrected)                         ...     -3.067098572
E(TOT)                                     ...   -839.744033055
FINAL SINGLE POINT ENERGY      -839.845060748530
FINAL SINGLE POINT ENERGY      -763.479590654498
FINAL SINGLE POINT ENERGY       -76.341635917417
FINAL SINGLE POINT ENERGY      -763.480782213996

CARTESIAN COORDINATES (ANGSTROEM)
---------------------------------
  H      0.391949   -3.317476   -4.063161
  O      1.296960   -3.058803   -4.337863
  H      1.189238   -2.429247   -5.067851
  H     -1.549127   -0.824046   -4.507469
  O     -1.025714   -0.642019   -5.313231
  H     -0.348056   -0.003518   -5.024863
  H      2.243736   -4.636255   -6.794103
  O      2.089702   -5.073894   -5.946862
  H      1.792765   -4.349585   -5.343095
  H      3.347702   -2.623525   -8.494349
  O      3.244860   -3.112393   -7.656713
  H      4.140686   -3.098972   -7.264682
  H      3.197332   -0.942297   -5.577649
  O      2.352537   -1.120134   -6.056423
  H      2.584882   -1.860878   -6.664366
  H      1.817536   -0.163729   -7.478120
  O      1.349103    0.253338   -8.231844
  H      1.327176   -0.443478   -8.908223
  H      4.979964   -1.411410   -9.335950
  O      4.035994   -1.153625   -9.492029
  H      3.950221   -1.072320  -10.445059
  H     -2.852999   -3.979955   -6.094915
  O     -2.064013   -4.518984   -5.905577
  H     -1.787290   -4.246468   -4.999070
  H     -0.437480    0.447868   -7.998563
  O     -1.382865    0.653247   -7.829830
  H     -1.563769    0.198241   -6.992196
  H     -0.780581   -3.427894   -6.759168
  O     -0.148399   -2.712146   -6.945719
  H     -0.511693   -1.957472   -6.441322
  O      0.759477   -2.177936   -9.478327
  H      0.348828   -2.422848   -8.616798
  H      0.031677   -2.184519  -10.105218

 Multiplicity           Mult            ....    1
 Number of Electrons    NEL             ....   10
 Basis Dimension        Dim             .... 1012

ORBITAL ENERGIES
----------------

  NO   OCC          E(Eh)            E(eV)
   0   2.0000     -20.569504      -559.7247
   1   2.0000      -1.345456       -36.6117
   2   2.0000      -0.709453       -19.3052
   3   2.0000      -0.581422       -15.8213
   4   2.0000      -0.508970       -13.8498
   5   0.0000       0.013113         0.3568
   6   0.0000       0.028716         0.7814
   7   0.0000       0.030775         0.8374
   8   0.0000       0.033420         0.9094
   9   0.0000       0.045364         1.2344

MULLIKEN ATOMIC CHARGES
-----------------------
   0 H :    0.000100
   1 O :    0.000254
   2 H :    0.001817
   3 H :   -0.000054
   4 O :   -0.001234
   5 H :    0.000116
   6 H :   -0.000090
   7 O :   -0.000218
   8 H :    0.000365
   9 H :   -0.000445
  10 O :    0.004258
  11 H :   -0.000200
  12 H :   -0.000370
  13 O :    0.000012
  14 H :    0.001892
  15 H :   -0.030751
  16 O :    0.043429
  17 H :    0.053341
  18 H :   -0.000586
  19 O :    0.001123
  20 H :   -0.001536
  21 H :    0.000138
  22 O :   -0.000206
  23 H :   -0.000023
  24 H :   -0.015271
  25 O :    0.001898
  26 H :   -0.001702
  27 H :    0.009681
  28 O :   -0.003502
  29 H :   -0.002633
  30 O :   -0.532457
  31 H :    0.402411
  32 H :    0.070443
Sum of atomic charges:    0.0000000

LOEWDIN ATOMIC CHARGES
----------------------
   0 H :   -0.000051
   1 O :   -0.000063
   2 H :   -0.000370
   3 H :   -0.000046
   4 O :   -0.000306
   5 H :   -0.000122
   6 H :   -0.000813
   7 O :   -0.000206
   8 H :   -0.000172
   9 H :   -0.016661
  10 O :   -0.008845
  11 H :   -0.000464
  12 H :   -0.000169
  13 O :   -0.001848
  14 H :   -0.003002
  15 H :   -0.009348
  16 O :   -0.024289
  17 H :   -0.170857
  18 H :   -0.000365
  19 O :   -0.005686
  20 H :   -0.002125
  21 H :   -0.000094
  22 O :   -0.000155
  23 H :   -0.000072
  24 H :   -0.005878
  25 O :   -0.002146
  26 H :   -0.000610
  27 H :   -0.009272
  28 O :   -0.070261
  29 H :   -0.009775
  30 O :    1.195092
  31 H :   -0.401803
  32 H :   -0.449220

  Mayer bond orders larger than 0.100000
B( 17-H , 30-O ) :  -0.1095 B( 30-O , 31-H ) :   0.7408 B( 30-O , 32-H ) :   1.1383

E(0)                                       ...    -76.059066585
E(CORR)(strong-pairs)                      ...     -0.275200848
E(CORR)(weak-pairs)                        ...     -0.000048104
E(CORR)(corrected)                         ...     -0.275248952
E(TOT)                                     ...    -76.334315537
E(CCSD(T))                                 ...    -76.342812947
FINAL SINGLE POINT ENERGY       -76.342812947103

DIPOLE MOMENT
-------------
                                X             Y             Z
Electronic contribution:      0.19687       0.04397      -0.04480
Nuclear contribution   :     -0.94760      -0.20933       0.19530
                        -----------------------------------------
Total Dipole Moment    :     -0.75073      -0.16537       0.15050
                        -----------------------------------------
Magnitude (a.u.)       :      0.78332
Magnitude (Debye)      :      1.99105

Rotational constants in cm-1:    26.667394    14.085511     9.217107
Rotational constants in MHz : 799468.356605 422273.010692 276321.911440

                             ****ORCA TERMINATED NORMALLY****
TOTAL RUN TIME: 0 days 9 hours 41 minutes 58 seconds 511 msec
