                         Program Version 5.0.1 -  RELEASE  -
|  1> !QM/XTB2 DLPNO-CCSD(T) aug-cc-pVTZ aug-cc-pVTZ/C TightPNO
|  2> %maxcore 2000
|  3> %pal
|  4> nprocs 24
|  5> end
|  6> %qmmm
|  7> QMAtoms {99 100 101 150 151 152 234 235 236 246 247 248 309 310 311 351 352 353 354 355 356 405 406 407 519 520 521 558 559 560 600 601 602 } end
|  8> ActiveAtoms {99 100 101 150 151 152 234 235 236 246 247 248 309 310 311 351 352 353 354 355 356 405 406 407 519 520 521 558 559 560 600 601 602 } end
|  9> end
| 10> *xyzfile 0 1 grain_mol_opt.xyz
| 11>
| 12>
| 13>                          ****END OF INPUT****
FINAL SINGLE POINT ENERGY (L-QM2)    -1023.432176363650
FINAL SINGLE POINT ENERGY (S-QM2)      -56.011774413160

CARTESIAN COORDINATES (ANGSTROEM)
---------------------------------
  H      0.391949   -3.317476   -4.063161
  O      1.296960   -3.058803   -4.337863
  H      1.189238   -2.429247   -5.067851
  H     -1.549127   -0.824046   -4.507469
  O     -1.025714   -0.642019   -5.313231
  H     -0.348056   -0.003518   -5.024863
  H      2.243736   -4.636255   -6.794103
  O      2.089702   -5.073894   -5.946862
  H      1.792765   -4.349585   -5.343095
  H      3.347702   -2.623525   -8.494349
  O      3.244860   -3.112393   -7.656713
  H      4.140686   -3.098972   -7.264682
  H      3.197332   -0.942297   -5.577649
  O      2.352537   -1.120134   -6.056423
  H      2.584882   -1.860878   -6.664366
  H      1.817536   -0.163729   -7.478120
  O      1.349103    0.253338   -8.231844
  H      1.327176   -0.443478   -8.908223
  H      4.979964   -1.411410   -9.335950
  O      4.035994   -1.153625   -9.492029
  H      3.950221   -1.072320  -10.445059
  H     -2.852999   -3.979955   -6.094915
  O     -2.064013   -4.518984   -5.905577
  H     -1.787290   -4.246468   -4.999070
  H     -0.437480    0.447868   -7.998563
  O     -1.382865    0.653247   -7.829830
  H     -1.563769    0.198241   -6.992196
  H     -0.780581   -3.427894   -6.759168
  O     -0.148399   -2.712146   -6.945719
  H     -0.511693   -1.957472   -6.441322
  O      0.759477   -2.177936   -9.478327
  H      0.348828   -2.422848   -8.616798
  H      0.031677   -2.184519  -10.105218

 Total Charge           Charge          ....    0
 Multiplicity           Mult            ....    1
 Number of Electrons    NEL             ....  110
 Basis Dimension        Dim             .... 1012

ORBITAL ENERGIES
----------------

  NO   OCC          E(Eh)            E(eV)
   0   2.0000     -20.627396      -561.3000
   1   2.0000     -20.626652      -561.2797
   2   2.0000     -20.615269      -560.9700
   3   2.0000     -20.605489      -560.7039
   4   2.0000     -20.604202      -560.6688
   5   2.0000     -20.600567      -560.5699
   6   2.0000     -20.581653      -560.0552
   7   2.0000     -20.570274      -559.7456
   8   2.0000     -20.569714      -559.7304
   9   2.0000     -20.568963      -559.7099
  10   2.0000     -20.553566      -559.2910
  11   2.0000      -1.412679       -38.4409
  12   2.0000      -1.407030       -38.2872
  13   2.0000      -1.405626       -38.2490
  14   2.0000      -1.397739       -38.0344
  15   2.0000      -1.386387       -37.7255
  16   2.0000      -1.377456       -37.4825
  17   2.0000      -1.373407       -37.3723
  18   2.0000      -1.362206       -37.0675
  19   2.0000      -1.352315       -36.7984
  20   2.0000      -1.349159       -36.7125
  21   2.0000      -1.335043       -36.3284
  22   2.0000      -0.772676       -21.0256
  23   2.0000      -0.767935       -20.8966
  24   2.0000      -0.761977       -20.7344
  25   2.0000      -0.756789       -20.5933
  26   2.0000      -0.756128       -20.5753
  27   2.0000      -0.746940       -20.3253
  28   2.0000      -0.743333       -20.2271
  29   2.0000      -0.735353       -20.0100
  30   2.0000      -0.731320       -19.9002
  31   2.0000      -0.726852       -19.7787
  32   2.0000      -0.710831       -19.3427
  33   2.0000      -0.661420       -17.9981
  34   2.0000      -0.658405       -17.9161
  35   2.0000      -0.645032       -17.5522
  36   2.0000      -0.643559       -17.5121
  37   2.0000      -0.637632       -17.3509
  38   2.0000      -0.631552       -17.1854
  39   2.0000      -0.622062       -16.9272
  40   2.0000      -0.605552       -16.4779
  41   2.0000      -0.600411       -16.3380
  42   2.0000      -0.594906       -16.1882
  43   2.0000      -0.584524       -15.9057
  44   2.0000      -0.564134       -15.3509
  45   2.0000      -0.561257       -15.2726
  46   2.0000      -0.553026       -15.0486
  47   2.0000      -0.546789       -14.8789
  48   2.0000      -0.545741       -14.8504
  49   2.0000      -0.542426       -14.7602
  50   2.0000      -0.528960       -14.3937
  51   2.0000      -0.523964       -14.2578
  52   2.0000      -0.520418       -14.1613
  53   2.0000      -0.508531       -13.8378
  54   2.0000      -0.504490       -13.7279
  55   0.0000      -0.002379        -0.0647
  56   0.0000       0.014117         0.3841
  57   0.0000       0.020118         0.5474
  58   0.0000       0.022327         0.6075
  59   0.0000       0.033379         0.9083

MULLIKEN ATOMIC CHARGES
-----------------------
   0 H :    0.164649
   1 O :   -0.671415
   2 H :    0.606734
   3 H :    0.175793
   4 O :   -0.456642
   5 H :    0.231510
   6 H :    0.308918
   7 O :   -0.822193
   8 H :    0.429502
   9 H :    0.347861
  10 O :   -0.406935
  11 H :    0.121399
  12 H :    0.113800
  13 O :   -0.504681
  14 H :    0.375918
  15 H :    0.399632
  16 O :   -0.742034
  17 H :    0.360647
  18 H :    0.201658
  19 O :   -0.403615
  20 H :    0.149168
  21 H :    0.229851
  22 O :   -0.533043
  23 H :    0.308873
  24 H :    0.415113
  25 O :   -0.760585
  26 H :    0.351813
  27 H :    0.248358
  28 O :   -0.654246
  29 H :    0.481944
  30 O :   -0.580348
  31 H :    0.434689
  32 H :    0.077904
Sum of atomic charges:    0.0000000

LOEWDIN ATOMIC CHARGES
----------------------
   0 H :   -0.408096
   1 O :    1.098768
   2 H :   -0.651603
   3 H :   -0.388132
   4 O :    1.124161
   5 H :   -0.395881
   6 H :   -0.629923
   7 O :    1.014493
   8 H :   -0.741396
   9 H :   -0.590012
  10 O :    1.141322
  11 H :   -0.378307
  12 H :   -0.365624
  13 O :    1.105917
  14 H :   -0.655109
  15 H :   -0.664778
  16 O :    1.094994
  17 H :   -0.613219
  18 H :   -0.400648
  19 O :    1.060405
  20 H :   -0.468562
  21 H :   -0.436592
  22 O :    1.040965
  23 H :   -0.432254
  24 H :   -0.704776
  25 O :    1.027723
  26 H :   -0.655483
  27 H :   -0.592724
  28 O :    1.148829
  29 H :   -0.639542
  30 O :    1.086714
  31 H :   -0.668375
  32 H :   -0.463256

  Mayer bond orders larger than 0.100000
B(  0-H ,  1-O ) :   1.1293 B(  1-O ,  2-H ) :   0.5189 B(  2-H , 13-O ) :  -0.1209
B(  3-H ,  4-O ) :   1.0571 B(  4-O ,  5-H ) :   1.0045 B(  6-H ,  7-O ) :   0.8985
B(  7-O ,  8-H ) :   0.6932 B(  9-H , 10-O ) :   0.8986 B( 10-O , 11-H ) :   1.1245
B( 10-O , 19-O ) :  -0.1351 B( 12-H , 13-O ) :   1.1481 B( 13-O , 14-H ) :   0.8474
B( 13-O , 16-O ) :  -0.1007 B( 15-H , 16-O ) :   0.6441 B( 16-O , 17-H ) :   0.9164
B( 18-H , 19-O ) :   1.0210 B( 19-O , 20-H ) :   1.0601 B( 21-H , 22-O ) :   0.9955
B( 22-O , 23-H ) :   0.9283 B( 24-H , 25-O ) :   0.7433 B( 25-O , 26-H ) :   0.8518
B( 27-H , 28-O ) :   1.1772 B( 28-O , 29-H ) :   0.7287 B( 30-O , 31-H ) :   0.6427
B( 30-O , 32-H ) :   1.1350

E(0)                                       ...   -836.897613403
E(0)                                       ...   -836.897613403
E(CORR)(strong-pairs)                      ...     -3.056376961
E(CORR)(weak-pairs)                        ...     -0.003131281
E(CORR)(corrected)                         ...     -3.059508242
E(TOT)                                     ...   -839.957121645
E(CCSD(T))                                 ...   -840.056992096
FINAL SINGLE POINT ENERGY      -840.056992095763
FINAL SINGLE POINT ENERGY (QM/QM2)    -1807.477394046253

DIPOLE MOMENT
-------------
                                X             Y             Z
Electronic contribution:      0.21199      -0.28954      -0.21299
Nuclear contribution   :      0.41403       0.48020       1.17583
                        -----------------------------------------
Total Dipole Moment    :      0.62602       0.19066       0.96284
                        -----------------------------------------
Magnitude (a.u.)       :      1.16418
Magnitude (Debye)      :      2.95911

Rotational constants in cm-1:     0.017695     0.014707     0.010893
Rotational constants in MHz :   530.485925   440.904341   326.570578

                             ****ORCA TERMINATED NORMALLY****
TOTAL RUN TIME: 0 days 2 hours 55 minutes 44 seconds 399 msec
