                         Program Version 5.0.1 -  RELEASE  -
|  1> ! DLPNO-CCSD(T) aug-cc-pVTZ aug-cc-pVTZ/C TightPNO
|  2> %maxcore 2000
|  3> %pal
|  4> nprocs 6
|  5> end
|  6> *xyzfile 0 1 mol_inp.xyz
|  7>
|  8>
|  9>                          ****END OF INPUT****

CARTESIAN COORDINATES (ANGSTROEM)
---------------------------------
  O      0.759477   -2.177936   -9.478327
  H      0.348828   -2.422848   -8.616798
  H      0.031677   -2.184519  -10.105218

 Total Charge           Charge          ....    0
 Multiplicity           Mult            ....    1
 Number of Electrons    NEL             ....   10
 Basis Dimension        Dim             ....   92

ORBITAL ENERGIES
----------------

  NO   OCC          E(Eh)            E(eV)
   0   2.0000     -20.569686      -559.7296
   1   2.0000      -1.345607       -36.6158
   2   2.0000      -0.709597       -19.3091
   3   2.0000      -0.581540       -15.8245
   4   2.0000      -0.508998       -13.8505
   5   0.0000       0.029245         0.7958
   6   0.0000       0.047614         1.2956
   7   0.0000       0.135901         3.6981
   8   0.0000       0.159262         4.3337
   9   0.0000       0.174562         4.7501

MULLIKEN ATOMIC CHARGES
-----------------------
   0 O :   -0.461801
   1 H :    0.240940
   2 H :    0.220861
Sum of atomic charges:    0.0000000

LOEWDIN ATOMIC CHARGES
----------------------
   0 O :    0.997687
   1 H :   -0.472838
   2 H :   -0.524850

  Mayer bond orders larger than 0.100000
B(  0-O ,  1-H ) :   0.9829 B(  0-O ,  2-H ) :   0.9986

E(0)                                       ...    -76.058847254
E(0)                                       ...    -76.058847254
E(CORR)(strong-pairs)                      ...     -0.274315687
E(CORR)(weak-pairs)                        ...     -0.000031649
E(CORR)(corrected)                         ...     -0.274347336
E(TOT)                                     ...    -76.333194590
E(CCSD(T))                                 ...    -76.341635917
FINAL SINGLE POINT ENERGY       -76.341635917417

DIPOLE MOMENT
-------------
                                X             Y             Z
Electronic contribution:      0.19601       0.04415      -0.04470
Nuclear contribution   :     -0.94760      -0.20933       0.19530
                        -----------------------------------------
Total Dipole Moment    :     -0.75159      -0.16518       0.15060
                        -----------------------------------------
Magnitude (a.u.)       :      0.78413
Magnitude (Debye)      :      1.99309

Rotational constants in cm-1:    26.667394    14.085511     9.217107
Rotational constants in MHz : 799468.356605 422273.010692 276321.911440

                             ****ORCA TERMINATED NORMALLY****
TOTAL RUN TIME: 0 days 0 hours 0 minutes 29 seconds 994 msec
