                         Program Version 5.0.1 -  RELEASE  -
|  1> !QM/XTB2 DLPNO-CCSD(T) aug-cc-pVTZ aug-cc-pVTZ/C TightPNO
|  2> %maxcore 2000
|  3> %pal
|  4> nprocs 24
|  5> end
|  6> %qmmm
|  7> QMAtoms {99 100 101 150 151 152 234 235 236 246 247 248 309 310 311 351 352 353 354 355 356 405 406 407 519 520 521 558 559 560 } end
|  8> ActiveAtoms {99 100 101 150 151 152 234 235 236 246 247 248 309 310 311 351 352 353 354 355 356 405 406 407 519 520 521 558 559 560 } end
|  9> end
| 10> *xyzfile 0 1 surf_inp.xyz
| 11>
| 12>
| 13>                          ****END OF INPUT****
FINAL SINGLE POINT ENERGY (L-QM2)    -1018.335491628730
FINAL SINGLE POINT ENERGY (S-QM2)      -50.918811868110

CARTESIAN COORDINATES (ANGSTROEM)
---------------------------------
  H      0.391949   -3.317476   -4.063161
  O      1.296960   -3.058803   -4.337863
  H      1.189238   -2.429247   -5.067851
  H     -1.549127   -0.824046   -4.507469
  O     -1.025714   -0.642019   -5.313231
  H     -0.348056   -0.003518   -5.024863
  H      2.243736   -4.636255   -6.794103
  O      2.089702   -5.073894   -5.946862
  H      1.792765   -4.349585   -5.343095
  H      3.347702   -2.623525   -8.494349
  O      3.244860   -3.112393   -7.656713
  H      4.140686   -3.098972   -7.264682
  H      3.197332   -0.942297   -5.577649
  O      2.352537   -1.120134   -6.056423
  H      2.584882   -1.860878   -6.664366
  H      1.817536   -0.163729   -7.478120
  O      1.349103    0.253338   -8.231844
  H      1.327176   -0.443478   -8.908223
  H      4.979964   -1.411410   -9.335950
  O      4.035994   -1.153625   -9.492029
  H      3.950221   -1.072320  -10.445059
  H     -2.852999   -3.979955   -6.094915
  O     -2.064013   -4.518984   -5.905577
  H     -1.787290   -4.246468   -4.999070
  H     -0.437480    0.447868   -7.998563
  O     -1.382865    0.653247   -7.829830
  H     -1.563769    0.198241   -6.992196
  H     -0.780581   -3.427894   -6.759168
  O     -0.148399   -2.712146   -6.945719
  H     -0.511693   -1.957472   -6.441322

 Total Charge           Charge          ....    0
 Multiplicity           Mult            ....    1
 Number of Electrons    NEL             ....  100
 Basis Dimension        Dim             ....  920

ORBITAL ENERGIES
----------------

  NO   OCC          E(Eh)            E(eV)
   0   2.0000     -20.622815      -561.1753
   1   2.0000     -20.620600      -561.1150
   2   2.0000     -20.615421      -560.9741
   3   2.0000     -20.610488      -560.8399
   4   2.0000     -20.609811      -560.8215
   5   2.0000     -20.608314      -560.7807
   6   2.0000     -20.598684      -560.5187
   7   2.0000     -20.567398      -559.6674
   8   2.0000     -20.552976      -559.2749
   9   2.0000     -20.550584      -559.2098
  10   2.0000      -1.411538       -38.4099
  11   2.0000      -1.404992       -38.2318
  12   2.0000      -1.402062       -38.1520
  13   2.0000      -1.395706       -37.9791
  14   2.0000      -1.394164       -37.9371
  15   2.0000      -1.389525       -37.8109
  16   2.0000      -1.377990       -37.4970
  17   2.0000      -1.349518       -36.7222
  18   2.0000      -1.336519       -36.3685
  19   2.0000      -1.335549       -36.3421
  20   2.0000      -0.770816       -20.9750
  21   2.0000      -0.767544       -20.8859
  22   2.0000      -0.762358       -20.7448
  23   2.0000      -0.761671       -20.7261
  24   2.0000      -0.755786       -20.5660
  25   2.0000      -0.751077       -20.4378
  26   2.0000      -0.747099       -20.3296
  27   2.0000      -0.729188       -19.8422
  28   2.0000      -0.722069       -19.6485
  29   2.0000      -0.710211       -19.3258
  30   2.0000      -0.663517       -18.0552
  31   2.0000      -0.654111       -17.7993
  32   2.0000      -0.649886       -17.6843
  33   2.0000      -0.639445       -17.4002
  34   2.0000      -0.633062       -17.2265
  35   2.0000      -0.630200       -17.1486
  36   2.0000      -0.623216       -16.9586
  37   2.0000      -0.603331       -16.4175
  38   2.0000      -0.601073       -16.3560
  39   2.0000      -0.580743       -15.8028
  40   2.0000      -0.565705       -15.3936
  41   2.0000      -0.558489       -15.1973
  42   2.0000      -0.554932       -15.1005
  43   2.0000      -0.551694       -15.0124
  44   2.0000      -0.544687       -14.8217
  45   2.0000      -0.542429       -14.7602
  46   2.0000      -0.533724       -14.5234
  47   2.0000      -0.523123       -14.2349
  48   2.0000      -0.505612       -13.7584
  49   2.0000      -0.496933       -13.5222
  50   0.0000       0.000249         0.0068
  51   0.0000       0.009758         0.2655
  52   0.0000       0.017895         0.4870
  53   0.0000       0.024686         0.6717
  54   0.0000       0.033809         0.9200

MULLIKEN ATOMIC CHARGES
-----------------------
   0 H :    0.161037
   1 O :   -0.647372
   2 H :    0.643016
   3 H :    0.176141
   4 O :   -0.458297
   5 H :    0.230378
   6 H :    0.332977
   7 O :   -0.810860
   8 H :    0.412044
   9 H :    0.320632
  10 O :   -0.461637
  11 H :    0.169001
  12 H :    0.116349
  13 O :   -0.503102
  14 H :    0.388906
  15 H :    0.448939
  16 O :   -0.635216
  17 H :    0.154769
  18 H :    0.219118
  19 O :   -0.413158
  20 H :    0.163046
  21 H :    0.229414
  22 O :   -0.540228
  23 H :    0.309674
  24 H :    0.389528
  25 O :   -0.736338
  26 H :    0.363389
  27 H :    0.281139
  28 O :   -0.731231
  29 H :    0.427944
Sum of atomic charges:   -0.0000000

LOEWDIN ATOMIC CHARGES
----------------------
   0 H :   -0.408156
   1 O :    1.096572
   2 H :   -0.654247
   3 H :   -0.389176
   4 O :    1.120442
   5 H :   -0.398607
   6 H :   -0.630837
   7 O :    1.012793
   8 H :   -0.741578
   9 H :   -0.581001
  10 O :    1.141390
  11 H :   -0.378090
  12 H :   -0.366800
  13 O :    1.105080
  14 H :   -0.655860
  15 H :   -0.669128
  16 O :    1.083266
  17 H :   -0.439194
  18 H :   -0.397148
  19 O :    1.060036
  20 H :   -0.469841
  21 H :   -0.437793
  22 O :    1.036559
  23 H :   -0.434537
  24 H :   -0.704714
  25 O :    1.026630
  26 H :   -0.654476
  27 H :   -0.647519
  28 O :    1.072643
  29 H :   -0.696709

  Mayer bond orders larger than 0.100000
B(  0-H ,  1-O ) :   1.1295 B(  1-O ,  2-H ) :   0.5261 B(  2-H , 13-O ) :  -0.1173
B(  3-H ,  4-O ) :   1.0551 B(  4-O ,  5-H ) :   1.0034 B(  6-H ,  7-O ) :   0.9058
B(  7-O ,  8-H ) :   0.7050 B(  9-H , 10-O ) :   0.9128 B( 10-O , 11-H ) :   1.0732
B( 12-H , 13-O ) :   1.1440 B( 13-O , 14-H ) :   0.8434 B( 15-H , 16-O ) :   0.6212
B( 16-O , 17-H ) :   1.0875 B( 18-H , 19-O ) :   1.0073 B( 19-O , 20-H ) :   1.0460
B( 21-H , 22-O ) :   0.9986 B( 22-O , 23-H ) :   0.9202 B( 24-H , 25-O ) :   0.8016
B( 25-O , 26-H ) :   0.8413 B( 27-H , 28-O ) :   1.0232 B( 28-O , 29-H ) :   0.7350

E(0)                                       ...   -760.821671188
E(0)                                       ...   -760.821671188
E(CORR)(strong-pairs)                      ...     -2.775072997
E(CORR)(weak-pairs)                        ...     -0.002480066
E(CORR)(corrected)                         ...     -2.777553063
E(TOT)                                     ...   -763.599224251
E(CCSD(T))                                 ...   -763.689393797
FINAL SINGLE POINT ENERGY      -763.689393796953
FINAL SINGLE POINT ENERGY (QM/QM2)    -1731.106073557573

DIPOLE MOMENT
-------------
                                X             Y             Z
Electronic contribution:      0.19052      -0.12492      -0.32442
Nuclear contribution   :      1.36163       0.68954       0.98053
                        -----------------------------------------
Total Dipole Moment    :      1.55215       0.56462       0.65611
                        -----------------------------------------
Magnitude (a.u.)       :      1.77720
Magnitude (Debye)      :      4.51728

Rotational constants in cm-1:     0.019645     0.016374     0.011143
Rotational constants in MHz :   588.940832   490.871408   334.055497

                             ****ORCA TERMINATED NORMALLY****
TOTAL RUN TIME: 0 days 2 hours 5 minutes 27 seconds 559 msec
