                         Program Version 5.0.1 -  RELEASE  -
|  1> ! DLPNO-CCSD(T) aug-cc-pVTZ aug-cc-pVTZ/C TightPNO
|  2> %pal
|  3> nprocs 1
|  4> end
|  5> *xyzfile 0 1 h20.xyz
|  6>
|  7>
|  8>                          ****END OF INPUT****

CARTESIAN COORDINATES (ANGSTROEM)
---------------------------------
  H     -0.479891   -0.296998   -3.201928
  O      0.378888   -0.699264   -3.034960
  H      1.005977   -0.047600   -3.365574

 Total Charge           Charge          ....    0
 Multiplicity           Mult            ....    1
 Number of Electrons    NEL             ....   10
 Basis Dimension        Dim             ....   92

ORBITAL ENERGIES
----------------

  NO   OCC          E(Eh)            E(eV)
   0   2.0000     -20.568357      -559.6934
   1   2.0000      -1.351142       -36.7664
   2   2.0000      -0.713318       -19.4104
   3   2.0000      -0.585210       -15.9244
   4   2.0000      -0.510054       -13.8793
   5   0.0000       0.029328         0.7981
   6   0.0000       0.047707         1.2982
   7   0.0000       0.135838         3.6963
   8   0.0000       0.158915         4.3243
   9   0.0000       0.175182         4.7670

MULLIKEN ATOMIC CHARGES
-----------------------
   0 H :    0.223629
   1 O :   -0.447263
   2 H :    0.223635
Sum of atomic charges:   -0.0000000

LOEWDIN ATOMIC CHARGES
----------------------
   0 H :   -0.510668
   1 O :    1.021323
   2 H :   -0.510654

  Mayer bond orders larger than 0.100000
B(  0-H ,  1-O ) :   0.9962 B(  1-O ,  2-H ) :   0.9962

E(0)                                       ...    -76.060127777
E(0)                                       ...    -76.060127777
E(CORR)(strong-pairs)                      ...     -0.273633388
E(CORR)(weak-pairs)                        ...     -0.000032530
E(CORR)(corrected)                         ...     -0.273665918
E(TOT)                                     ...    -76.333793695
E(CCSD(T))                                 ...    -76.342142635
FINAL SINGLE POINT ENERGY       -76.342142634944

DIPOLE MOMENT
-------------
                                X             Y             Z
Electronic contribution:      0.03951      -0.17972       0.08485
Nuclear contribution   :     -0.19285       0.87725      -0.41417
                        -----------------------------------------
Total Dipole Moment    :     -0.15334       0.69753      -0.32932
                        -----------------------------------------
Magnitude (a.u.)       :      0.78645
Magnitude (Debye)      :      1.99900

Rotational constants in cm-1:    26.672445    14.562849     9.419765
Rotational constants in MHz : 799619.780727 436583.240210 282397.461334

                             ****ORCA TERMINATED NORMALLY****
TOTAL RUN TIME: 0 days 0 hours 1 minutes 5 seconds 98 msec
