                         Program Version 4.2.1 -  RELEASE  -
|  1> #------------------------------------------------------
|  2> # After the Orca calculation you will get two inter-
|  3> # action energies at the end of the output file. The
|  4> # difference is the negative BSSE.
|  5> #
|  6> # The script will set the orbital guess PModel for
|  7> # jobs 2-5 since Orca will try to use the .gbw-files of
|  8> # the earlier calculations which does not work for jobs
|  9> # 2 and 3 and does not help for jobs 4 and 5.
| 10> #------------------------------------------------------
| 11> #
| 12> #-------------------------
| 13> #     First the dimer
| 14> #-------------------------
| 15>
| 16> %id "dimer"
| 17> ! DLPNO-CCSD(T) aug-cc-pVTZ aug-cc-pVTZ/C TightPNO
| 18> %maxcore 2000
| 19> %pal
| 20> nprocs 10
| 21> end
| 22>
| 23> * xyz 0 1
| 24> H     0.437015    -0.722975     2.539106
| 25> O     0.377617    -1.637563     2.925810
| 26> H     0.491487    -2.200896     2.146277
| 27> H    -2.568331     1.404478     1.047663
| 28> O    -2.243112     1.591905     1.977414
| 29> H    -2.882144     1.092647     2.547296
| 30> H     0.888972    -2.942300    -0.135098
| 31> O     0.566540    -2.028337    -0.025227
| 32> H     1.362688    -1.456482     0.023356
| 33> H     3.046174    -0.412495     1.112743
| 34> O     2.802624    -0.569245     0.170116
| 35> H     3.115100     0.216165    -0.318506
| 36> H     0.585129     2.932421    -0.425146
| 37> O     1.362882     2.497691     0.018692
| 38> H     2.117704     2.509816    -0.585837
| 39> H    -2.375761    -1.888358     0.902444
| 40> O    -2.092676    -1.979067    -0.035191
| 41> H    -1.136774    -1.759069    -0.021966
| 42> H    -3.763782     0.567298    -0.376081
| 43> O    -2.983584     1.143968    -0.499572
| 44> H    -2.294391     0.596501    -0.947225
| 45> H    -4.933043    -1.824498    -1.342388
| 46> O    -4.241056    -2.436260    -1.630701
| 47> H    -3.456349    -2.140037    -1.112083
| 48> H    -0.693962     1.006349     1.898660
| 49> O     0.276203     0.796438     1.951149
| 50> H     0.666954     1.101832     1.115747
| 51> H     4.655223     1.562723    -0.377292
| 52> O     3.932173     1.683737    -1.052217
| 53> H     4.375456     1.507559    -1.889338
| 54> H    -1.230396     3.978320    -0.085943
| 55> O    -0.909168     3.548281    -0.912929
| 56> H    -1.612983     2.908654    -1.099541
| 57> H     3.382491    -2.093172    -0.581791
| 58> O     3.476101    -3.031671    -0.849025
| 59> H     4.434746    -3.147502    -0.925112
| 60> N    -0.617699     0.272235    -1.886545
| 61> H    -0.239695    -0.659212    -1.730569
| 62> H     0.100465     0.929547    -1.593199
| 63> H    -0.744452     0.388033    -2.886901
| 64> *
| 65>
| 66> #--------------------------
| 67> #   Now the fragments at
| 68> #      dimer-geometry
| 69> #-------------------------
| 70>
| 71> $new_job
| 72> %id "fragment"
| 73> %scf guess PModel end
| 74> ! DLPNO-CCSD(T) aug-cc-pVTZ aug-cc-pVTZ/C TightPNO
| 75> %maxcore 2000
| 76> %pal
| 77> nprocs 10
| 78> end
| 79>
| 80> * xyz 0 1
| 81> H     0.437015    -0.722975     2.539106
| 82> O     0.377617    -1.637563     2.925810
| 83> H     0.491487    -2.200896     2.146277
| 84> H    -2.568331     1.404478     1.047663
| 85> O    -2.243112     1.591905     1.977414
| 86> H    -2.882144     1.092647     2.547296
| 87> H     0.888972    -2.942300    -0.135098
| 88> O     0.566540    -2.028337    -0.025227
| 89> H     1.362688    -1.456482     0.023356
| 90> H     3.046174    -0.412495     1.112743
| 91> O     2.802624    -0.569245     0.170116
| 92> H     3.115100     0.216165    -0.318506
| 93> H     0.585129     2.932421    -0.425146
| 94> O     1.362882     2.497691     0.018692
| 95> H     2.117704     2.509816    -0.585837
| 96> H    -2.375761    -1.888358     0.902444
| 97> O    -2.092676    -1.979067    -0.035191
| 98> H    -1.136774    -1.759069    -0.021966
| 99> H    -3.763782     0.567298    -0.376081
|100> O    -2.983584     1.143968    -0.499572
|101> H    -2.294391     0.596501    -0.947225
|102> H    -4.933043    -1.824498    -1.342388
|103> O    -4.241056    -2.436260    -1.630701
|104> H    -3.456349    -2.140037    -1.112083
|105> H    -0.693962     1.006349     1.898660
|106> O     0.276203     0.796438     1.951149
|107> H     0.666954     1.101832     1.115747
|108> H     4.655223     1.562723    -0.377292
|109> O     3.932173     1.683737    -1.052217
|110> H     4.375456     1.507559    -1.889338
|111> H    -1.230396     3.978320    -0.085943
|112> O    -0.909168     3.548281    -0.912929
|113> H    -1.612983     2.908654    -1.099541
|114> H     3.382491    -2.093172    -0.581791
|115> O     3.476101    -3.031671    -0.849025
|116> H     4.434746    -3.147502    -0.925112
|117> *
|118>
|119> $new_job
|120> %id "fragment"
|121> %scf guess PModel end
|122> ! DLPNO-CCSD(T) aug-cc-pVTZ aug-cc-pVTZ/C TightPNO
|123> %maxcore 2000
|124> %pal
|125> nprocs 10
|126> end
|127>
|128> * xyz 0 1
|129> N    -0.617699     0.272235    -1.886545
|130> H    -0.239695    -0.659212    -1.730569
|131> H     0.100465     0.929547    -1.593199
|132> H    -0.744452     0.388033    -2.886901
|133> *
|134>
|135> #--------------------------
|136> #   Now the fragments at
|137> #   dimer-geometry with
|138> #     the dimer-basis
|139> #-------------------------
|140>
|141> $new_job
|142> %id "ghost"
|143> %scf guess PModel end
|144> ! DLPNO-CCSD(T) aug-cc-pVTZ aug-cc-pVTZ/C TightPNO
|145> %maxcore 2000
|146> %pal
|147> nprocs 10
|148> end
|149>
|150> * xyz 0 1
|151> H          0.437015    -0.722975     2.539106
|152> O          0.377617    -1.637563     2.925810
|153> H          0.491487    -2.200896     2.146277
|154> H         -2.568331     1.404478     1.047663
|155> O         -2.243112     1.591905     1.977414
|156> H         -2.882144     1.092647     2.547296
|157> H          0.888972    -2.942300    -0.135098
|158> O          0.566540    -2.028337    -0.025227
|159> H          1.362688    -1.456482     0.023356
|160> H          3.046174    -0.412495     1.112743
|161> O          2.802624    -0.569245     0.170116
|162> H          3.115100     0.216165    -0.318506
|163> H          0.585129     2.932421    -0.425146
|164> O          1.362882     2.497691     0.018692
|165> H          2.117704     2.509816    -0.585837
|166> H         -2.375761    -1.888358     0.902444
|167> O         -2.092676    -1.979067    -0.035191
|168> H         -1.136774    -1.759069    -0.021966
|169> H         -3.763782     0.567298    -0.376081
|170> O         -2.983584     1.143968    -0.499572
|171> H         -2.294391     0.596501    -0.947225
|172> H         -4.933043    -1.824498    -1.342388
|173> O         -4.241056    -2.436260    -1.630701
|174> H         -3.456349    -2.140037    -1.112083
|175> H         -0.693962     1.006349     1.898660
|176> O          0.276203     0.796438     1.951149
|177> H          0.666954     1.101832     1.115747
|178> H          4.655223     1.562723    -0.377292
|179> O          3.932173     1.683737    -1.052217
|180> H          4.375456     1.507559    -1.889338
|181> H         -1.230396     3.978320    -0.085943
|182> O         -0.909168     3.548281    -0.912929
|183> H         -1.612983     2.908654    -1.099541
|184> H          3.382491    -2.093172    -0.581791
|185> O          3.476101    -3.031671    -0.849025
|186> H          4.434746    -3.147502    -0.925112
|187> N :       -0.617699     0.272235    -1.886545
|188> H :       -0.239695    -0.659212    -1.730569
|189> H :        0.100465     0.929547    -1.593199
|190> H :       -0.744452     0.388033    -2.886901
|191> *
|192>
|193> $new_job
|194> %id "ghost"
|195> %scf guess PModel end
|196> ! DLPNO-CCSD(T) aug-cc-pVTZ aug-cc-pVTZ/C TightPNO
|197> %maxcore 2000
|198> %pal
|199> nprocs 10
|200> end
|201>
|202> * xyz 0 1
|203> H :        0.437015    -0.722975     2.539106
|204> O :        0.377617    -1.637563     2.925810
|205> H :        0.491487    -2.200896     2.146277
|206> H :       -2.568331     1.404478     1.047663
|207> O :       -2.243112     1.591905     1.977414
|208> H :       -2.882144     1.092647     2.547296
|209> H :        0.888972    -2.942300    -0.135098
|210> O :        0.566540    -2.028337    -0.025227
|211> H :        1.362688    -1.456482     0.023356
|212> H :        3.046174    -0.412495     1.112743
|213> O :        2.802624    -0.569245     0.170116
|214> H :        3.115100     0.216165    -0.318506
|215> H :        0.585129     2.932421    -0.425146
|216> O :        1.362882     2.497691     0.018692
|217> H :        2.117704     2.509816    -0.585837
|218> H :       -2.375761    -1.888358     0.902444
|219> O :       -2.092676    -1.979067    -0.035191
|220> H :       -1.136774    -1.759069    -0.021966
|221> H :       -3.763782     0.567298    -0.376081
|222> O :       -2.983584     1.143968    -0.499572
|223> H :       -2.294391     0.596501    -0.947225
|224> H :       -4.933043    -1.824498    -1.342388
|225> O :       -4.241056    -2.436260    -1.630701
|226> H :       -3.456349    -2.140037    -1.112083
|227> H :       -0.693962     1.006349     1.898660
|228> O :        0.276203     0.796438     1.951149
|229> H :        0.666954     1.101832     1.115747
|230> H :        4.655223     1.562723    -0.377292
|231> O :        3.932173     1.683737    -1.052217
|232> H :        4.375456     1.507559    -1.889338
|233> H :       -1.230396     3.978320    -0.085943
|234> O :       -0.909168     3.548281    -0.912929
|235> H :       -1.612983     2.908654    -1.099541
|236> H :        3.382491    -2.093172    -0.581791
|237> O :        3.476101    -3.031671    -0.849025
|238> H :        4.434746    -3.147502    -0.925112
|239> N         -0.617699     0.272235    -1.886545
|240> H         -0.239695    -0.659212    -1.730569
|241> H          0.100465     0.929547    -1.593199
|242> H         -0.744452     0.388033    -2.886901
|243> *
|244>
|245>
|246>                          ****END OF INPUT****
 Total Charge           Charge          ....    0
 Multiplicity           Mult            ....    1
 Number of Electrons    NEL             ....  130
E(0)                                       ...   -968.974364557
E(0)                                       ...   -968.974364557
E(CORR)(strong-pairs)                      ...     -3.601723275
E(CORR)(weak-pairs)                        ...     -0.004462512
E(CORR)(corrected)                         ...     -3.606185788
E(TOT)                                     ...   -972.580550344
FINAL SINGLE POINT ENERGY      -972.700178802846
FINAL SINGLE POINT ENERGY      -916.195399486671
FINAL SINGLE POINT ENERGY       -56.480419419843
FINAL SINGLE POINT ENERGY      -916.196832742441

CARTESIAN COORDINATES (ANGSTROEM)
---------------------------------
  H      0.437015   -0.722975    2.539106
  O      0.377617   -1.637563    2.925810
  H      0.491487   -2.200896    2.146277
  H     -2.568331    1.404478    1.047663
  O     -2.243112    1.591905    1.977414
  H     -2.882144    1.092647    2.547296
  H      0.888972   -2.942300   -0.135098
  O      0.566540   -2.028337   -0.025227
  H      1.362688   -1.456482    0.023356
  H      3.046174   -0.412495    1.112743
  O      2.802624   -0.569245    0.170116
  H      3.115100    0.216165   -0.318506
  H      0.585129    2.932421   -0.425146
  O      1.362882    2.497691    0.018692
  H      2.117704    2.509816   -0.585837
  H     -2.375761   -1.888358    0.902444
  O     -2.092676   -1.979067   -0.035191
  H     -1.136774   -1.759069   -0.021966
  H     -3.763782    0.567298   -0.376081
  O     -2.983584    1.143968   -0.499572
  H     -2.294391    0.596501   -0.947225
  H     -4.933043   -1.824498   -1.342388
  O     -4.241056   -2.436260   -1.630701
  H     -3.456349   -2.140037   -1.112083
  H     -0.693962    1.006349    1.898660
  O      0.276203    0.796438    1.951149
  H      0.666954    1.101832    1.115747
  H      4.655223    1.562723   -0.377292
  O      3.932173    1.683737   -1.052217
  H      4.375456    1.507559   -1.889338
  H     -1.230396    3.978320   -0.085943
  O     -0.909168    3.548281   -0.912929
  H     -1.612983    2.908654   -1.099541
  H      3.382491   -2.093172   -0.581791
  O      3.476101   -3.031671   -0.849025
  H      4.434746   -3.147502   -0.925112
  N     -0.617699    0.272235   -1.886545
  H     -0.239695   -0.659212   -1.730569
  H      0.100465    0.929547   -1.593199
  H     -0.744452    0.388033   -2.886901

 Multiplicity           Mult            ....    1
 Number of Electrons    NEL             ....   10
 Basis Dimension        Dim             .... 1219

ORBITAL ENERGIES
----------------

  NO   OCC          E(Eh)            E(eV)
   0   2.0000     -15.542832      -422.9420
   1   2.0000      -1.139496       -31.0073
   2   2.0000      -0.629222       -17.1220
   3   2.0000      -0.626039       -17.0354
   4   2.0000      -0.427900       -11.6437
   5   0.0000       0.014225         0.3871
   6   0.0000       0.027547         0.7496
   7   0.0000       0.027911         0.7595
   8   0.0000       0.031539         0.8582
   9   0.0000       0.042092         1.1454

MULLIKEN ATOMIC CHARGES
-----------------------
   0 H :    0.000031
   1 O :   -0.000025
   2 H :    0.000415
   3 H :   -0.003802
   4 O :   -0.001971
   5 H :    0.000002
   6 H :   -0.003120
   7 O :    0.023918
   8 H :   -0.003368
   9 H :    0.000312
  10 O :   -0.007566
  11 H :   -0.000225
  12 H :   -0.001782
  13 O :    0.005758
  14 H :    0.001982
  15 H :    0.003023
  16 O :   -0.011341
  17 H :   -0.003422
  18 H :    0.008321
  19 O :    0.005876
  20 H :    0.001770
  21 H :    0.000110
  22 O :   -0.000476
  23 H :   -0.001772
  24 H :   -0.001794
  25 O :   -0.001054
  26 H :   -0.003369
  27 H :   -0.000044
  28 O :   -0.001038
  29 H :    0.000287
  30 H :    0.000887
  31 O :   -0.001308
  32 H :   -0.004843
  33 H :    0.000665
  34 O :   -0.000175
  35 H :    0.000027
  36 N :   -0.546928
  37 H :    0.175405
  38 H :    0.340613
  39 H :    0.030022
Sum of atomic charges:    0.0000000

LOEWDIN ATOMIC CHARGES
----------------------
   0 H :   -0.000253
   1 O :   -0.000058
   2 H :   -0.000217
   3 H :   -0.003073
   4 O :   -0.001025
   5 H :   -0.000176
   6 H :   -0.001877
   7 O :   -0.023296
   8 H :   -0.010907
   9 H :   -0.000259
  10 O :   -0.002492
  11 H :   -0.001260
  12 H :   -0.014009
  13 O :   -0.011460
  14 H :   -0.004204
  15 H :   -0.001387
  16 O :   -0.013398
  17 H :   -0.032303
  18 H :   -0.005668
  19 O :   -0.030805
  20 H :   -0.182171
  21 H :   -0.000217
  22 O :   -0.000489
  23 H :   -0.001725
  24 H :   -0.001269
  25 O :   -0.002156
  26 H :   -0.005667
  27 H :   -0.000070
  28 O :   -0.000442
  29 H :   -0.000167
  30 H :   -0.000782
  31 O :   -0.008821
  32 H :   -0.017401
  33 H :   -0.000280
  34 O :   -0.000091
  35 H :   -0.000021
  36 N :    1.256852
  37 H :   -0.290703
  38 H :   -0.291864
  39 H :   -0.294391

  Mayer bond orders larger than 0.100000
B( 36-N , 37-H ) :   0.9805 B( 36-N , 38-H ) :   0.7771 B( 36-N , 39-H ) :   1.2024

E(0)                                       ...    -56.220132214
E(CORR)(strong-pairs)                      ...     -0.252978385
E(CORR)(weak-pairs)                        ...     -0.000063768
E(CORR)(corrected)                         ...     -0.253042153
E(TOT)                                     ...    -56.473174367
E(CCSD(T))                                 ...    -56.481344004
FINAL SINGLE POINT ENERGY       -56.481344004137

DIPOLE MOMENT
-------------
                                X             Y             Z
Electronic contribution:     -0.21038       0.03437       0.11529
Nuclear contribution   :      0.74768      -0.12212      -0.42500
                        -----------------------------------------
Total Dipole Moment    :      0.53730      -0.08776      -0.30971
                        -----------------------------------------
Magnitude (a.u.)       :      0.62635
Magnitude (Debye)      :      1.59205

Rotational constants in cm-1:     9.973899     9.868273     6.249313
Rotational constants in MHz : 299009.966176 295843.385118 187349.696259

                             ****ORCA TERMINATED NORMALLY****
TOTAL RUN TIME: 0 days 10 hours 12 minutes 31 seconds 539 msec
