                         Program Version 5.0.2 -  RELEASE  -
|  1> !QM/XTB2 DLPNO-CCSD(T) aug-cc-pVTZ aug-cc-pVTZ/C TightPNO
|  2> %maxcore 2000
|  3> %pal
|  4> nprocs 10
|  5> end
|  6> %qmmm
|  7> QMAtoms {438 439 440 501 502 503 } end
|  8> ActiveAtoms {438 439 440 501 502 503 } end
|  9> end
| 10> *xyzfile 0 1 cluster_opt.xyz
| 11>
| 12>
| 13>                          ****END OF INPUT****
FINAL SINGLE POINT ENERGY (L-QM2)    -1018.344954235600
FINAL SINGLE POINT ENERGY (S-QM2)      -10.181695773660

CARTESIAN COORDINATES (ANGSTROEM)
---------------------------------
  H     -7.029993   -3.425299   -3.428073
  O     -7.636445   -4.038555   -3.902089
  H     -7.062504   -4.464553   -4.573440
  H     -5.192595   -5.717807   -5.358648
  O     -5.841771   -5.083726   -5.701382
  H     -5.295145   -4.306362   -5.937889

 Total Charge           Charge          ....    0
 Multiplicity           Mult            ....    1
 Number of Electrons    NEL             ....   20
 Basis Dimension        Dim             ....  184

ORBITAL ENERGIES
----------------

  NO   OCC          E(Eh)            E(eV)
   0   2.0000     -20.582793      -560.0863
   1   2.0000     -20.567088      -559.6589
   2   2.0000      -1.366704       -37.1899
   3   2.0000      -1.341733       -36.5104
   4   2.0000      -0.721725       -19.6391
   5   2.0000      -0.712036       -19.3755
   6   2.0000      -0.612622       -16.6703
   7   2.0000      -0.586202       -15.9514
   8   2.0000      -0.521612       -14.1938
   9   2.0000      -0.516479       -14.0541
  10   0.0000       0.017288         0.4704
  11   0.0000       0.040136         1.0922
  12   0.0000       0.049221         1.3394
  13   0.0000       0.065540         1.7834
  14   0.0000       0.123787         3.3684

MULLIKEN ATOMIC CHARGES
-----------------------
   0 H :    0.258754
   1 O :   -0.636572
   2 H :    0.327029
   3 H :    0.237223
   4 O :   -0.430773
   5 H :    0.244339
Sum of atomic charges:    0.0000000

LOEWDIN ATOMIC CHARGES
----------------------
   0 H :   -0.477784
   1 O :    0.977149
   2 H :   -0.727622
   3 H :   -0.437639
   4 O :    1.083698
   5 H :   -0.417802

  Mayer bond orders larger than 0.100000
B(  0-H ,  1-O ) :   0.9707 B(  1-O ,  2-H ) :   0.8854 B(  3-H ,  4-O ) :   1.0058
B(  4-O ,  5-H ) :   0.9941

E(0)                                       ...   -152.174584070
E(0)                                       ...   -152.174584070
E(CORR)(strong-pairs)                      ...     -0.550581896
E(CORR)(weak-pairs)                        ...     -0.000167576
E(CORR)(corrected)                         ...     -0.550749472
E(TOT)                                     ...   -152.725333542
E(CCSD(T))                                 ...   -152.742614991
FINAL SINGLE POINT ENERGY      -152.742614990852
FINAL SINGLE POINT ENERGY (QM/QM2)    -1160.905873452792

DIPOLE MOMENT
-------------
                                X             Y             Z
Electronic contribution:      0.03378      -0.17013      -0.26208
Nuclear contribution   :      1.97785       0.27513      -0.07583
                        -----------------------------------------
Total Dipole Moment    :      2.01163       0.10500      -0.33791
                        -----------------------------------------
Magnitude (a.u.)       :      2.04252
Magnitude (Debye)      :      5.19166

Rotational constants in cm-1:     6.663722     0.242112     0.239754
Rotational constants in MHz : 199773.366355  7258.332427  7187.653007

                             ****ORCA TERMINATED NORMALLY****
TOTAL RUN TIME: 0 days 0 hours 1 minutes 3 seconds 135 msec
