                         Program Version 5.0.2 -  RELEASE  -
|  1> !QM/XTB2 B97-3c tightopt
|  2> !NumFreq
|  3> %pal
|  4> nprocs 24
|  5> end
|  6> %qmmm
|  7> QMAtoms {438 439 440 501 502 503 } end
|  8> ActiveAtoms {438 439 440 501 502 503 } end
|  9> ExtendActiveRegion no
| 10> end
| 11> %geom
| 12> MaxIter 500
| 13> end
| 14> *xyzfile 0 1 cluster_inp.xyz
| 15>
| 16>
| 17>                          ****END OF INPUT****
FINAL SINGLE POINT ENERGY (L-QM2)    -1018.344357716240
FINAL SINGLE POINT ENERGY (S-QM2)      -10.181637441850
 Total Charge           Charge          ....    0
 Multiplicity           Mult            ....    1
 Number of Electrons    NEL             ....   20
Dispersion correction           -0.003137079
FINAL SINGLE POINT ENERGY      -152.857025372963
FINAL SINGLE POINT ENERGY (QM/QM2)    -1161.019745647353
Dispersion correction            ... done
FINAL SINGLE POINT ENERGY (L-QM2)    -1018.344886218270
FINAL SINGLE POINT ENERGY (S-QM2)      -10.181560748010
Dispersion correction           -0.003183513
FINAL SINGLE POINT ENERGY      -152.856590190969
FINAL SINGLE POINT ENERGY (QM/QM2)    -1161.019915661229
Dispersion correction            ... done
FINAL SINGLE POINT ENERGY (L-QM2)    -1018.344896504730
FINAL SINGLE POINT ENERGY (S-QM2)      -10.181629590990
Dispersion correction           -0.003182020
Dispersion correction            ... done
Dispersion correction            ... done
Dispersion correction           -0.003180514
FINAL SINGLE POINT ENERGY      -152.856725366991
FINAL SINGLE POINT ENERGY (QM/QM2)    -1161.019979616551
Dispersion correction            ... done
FINAL SINGLE POINT ENERGY (L-QM2)    -1018.344955753770
FINAL SINGLE POINT ENERGY (S-QM2)      -10.181698900610
Dispersion correction           -0.003180530
FINAL SINGLE POINT ENERGY      -152.856722607534
FINAL SINGLE POINT ENERGY (QM/QM2)    -1161.019979460694
Dispersion correction            ... done
                    ***********************HURRAY********************
FINAL SINGLE POINT ENERGY (L-QM2)    -1018.344954235900
FINAL SINGLE POINT ENERGY (S-QM2)      -10.181695898350

CARTESIAN COORDINATES (ANGSTROEM)
---------------------------------
  H     -7.029993   -3.425299   -3.428073
  O     -7.636445   -4.038555   -3.902089
  H     -7.062504   -4.464553   -4.573440
  H     -5.192595   -5.717807   -5.358648
  O     -5.841771   -5.083726   -5.701382
  H     -5.295145   -4.306362   -5.937889

 Multiplicity           Mult            ....    1
 Number of Electrons    NEL             ....   20
 Basis Dimension        Dim             ....   60

ORBITAL ENERGIES
----------------

  NO   OCC          E(Eh)            E(eV)
   0   2.0000     -18.766406      -510.6599
   1   2.0000     -18.743663      -510.0410
   2   2.0000      -0.948159       -25.8007
   3   2.0000      -0.920695       -25.0534
   4   2.0000      -0.491136       -13.3645
   5   2.0000      -0.474289       -12.9060
   6   2.0000      -0.369363       -10.0509
   7   2.0000      -0.341150        -9.2832
   8   2.0000      -0.278521        -7.5789
   9   2.0000      -0.269275        -7.3273
  10   0.0000       0.003528         0.0960
  11   0.0000       0.056740         1.5440
  12   0.0000       0.105465         2.8699
  13   0.0000       0.154367         4.2005
  14   0.0000       0.224562         6.1107

MULLIKEN ATOMIC CHARGES
-----------------------
   0 H :    0.488138
   1 O :   -0.994245
   2 H :    0.457609
   3 H :    0.498224
   4 O :   -0.947627
   5 H :    0.497902
Sum of atomic charges:    0.0000000

LOEWDIN ATOMIC CHARGES
----------------------
   0 H :    0.374235
   1 O :   -0.808720
   2 H :    0.368726
   3 H :    0.383492
   4 O :   -0.702905
   5 H :    0.385172

  Mayer bond orders larger than 0.100000
B(  0-H ,  1-O ) :   0.7408 B(  1-O ,  2-H ) :   0.6748 B(  2-H ,  4-O ) :   0.1336
B(  3-H ,  4-O ) :   0.7308 B(  4-O ,  5-H ) :   0.7305

Dispersion correction           -0.003180522
FINAL SINGLE POINT ENERGY      -152.856720987310
FINAL SINGLE POINT ENERGY (QM/QM2)    -1161.019979324860

DIPOLE MOMENT
-------------
                                X             Y             Z
Electronic contribution:     -0.01928      -0.20909      -0.31183
Nuclear contribution   :      1.97785       0.27513      -0.07583
                        -----------------------------------------
Total Dipole Moment    :      1.95858       0.06604      -0.38767
                        -----------------------------------------
Magnitude (a.u.)       :      1.99767
Magnitude (Debye)      :      5.07766

VIBRATIONAL FREQUENCIES
-----------------------

Scaling factor for frequencies =  1.000000000 (already applied!)

   0:         0.00 cm**-1
   1:         0.00 cm**-1
   2:         0.00 cm**-1
   3:         0.00 cm**-1
   4:         0.00 cm**-1
   5:         0.00 cm**-1
   6:       298.33 cm**-1
   7:       637.12 cm**-1
   8:       719.09 cm**-1
   9:       783.21 cm**-1
  10:       838.32 cm**-1
  11:       948.91 cm**-1
  12:      1737.04 cm**-1
  13:      1777.36 cm**-1
  14:      3373.44 cm**-1
  15:      3412.04 cm**-1
  16:      3497.27 cm**-1
  17:      3677.01 cm**-1

IR SPECTRUM
-----------

 Mode   freq       eps      Int      T**2         TX        TY        TZ
       cm**-1   L/(mol*cm) km/mol    a.u.
----------------------------------------------------------------------------
  6:    298.33   0.001828    9.24  0.001912  ( 0.025307 -0.020478 -0.029186)
  7:    637.12   0.006430   32.50  0.003150  ( 0.011986 -0.031241 -0.045055)
  8:    719.09   0.002118   10.70  0.000919  (-0.016568 -0.017756 -0.018144)
  9:    783.21   0.046276  233.86  0.018438  ( 0.007687 -0.044678 -0.127995)
 10:    838.32   0.000909    4.59  0.000338  (-0.011212  0.007348  0.012591)
 11:    948.91   0.019413   98.11  0.006384  (-0.024273  0.072182 -0.024185)
 12:   1737.04   0.030026  151.74  0.005394  (-0.070086  0.001378  0.021915)
 13:   1777.36   0.007270   36.74  0.001276  ( 0.033040  0.007107  0.011589)
 14:   3373.44   0.005207   26.31  0.000482  ( 0.006698  0.012920  0.016428)
 15:   3412.04   0.124255  627.93  0.011364  ( 0.068198 -0.037086 -0.073061)
 16:   3497.27   0.025874  130.76  0.002309  (-0.018042  0.039460  0.020643)
 17:   3677.01   0.012201   61.66  0.001035  ( 0.010480 -0.026191  0.015480)

--------------------------
THERMOCHEMISTRY AT 298.15K
--------------------------

Temperature         ... 298.15 K
Pressure            ... 1.00 atm
Total Mass          ... 36.03 AMU

Throughout the following assumptions are being made:
  (1) The electronic state is orbitally nondegenerate
  (2) There are no thermally accessible electronically excited states
  (3) Hindered rotations indicated by low frequency modes are not
      treated as such but are treated as vibrations and this may
      cause some error
  (4) All equations used are the standard statistical mechanics
      equations for an ideal gas
  (5) All vibrations are strictly harmonic

freq.     298.33  E(vib)   ...       0.26
freq.     637.12  E(vib)   ...       0.09
freq.     719.09  E(vib)   ...       0.07
freq.     783.21  E(vib)   ...       0.05
freq.     838.32  E(vib)   ...       0.04
freq.     948.91  E(vib)   ...       0.03
freq.    1737.04  E(vib)   ...       0.00
freq.    1777.36  E(vib)   ...       0.00
freq.    3373.44  E(vib)   ...       0.00
freq.    3412.04  E(vib)   ...       0.00
freq.    3497.27  E(vib)   ...       0.00
freq.    3677.01  E(vib)   ...       0.00

------------
INNER ENERGY
------------

The inner energy is: U= E(el) + E(ZPE) + E(vib) + E(rot) + E(trans)
    E(el)   - is the total energy from the electronic structure calculation
              = E(kin-el) + E(nuc-el) + E(el-el) + E(nuc-nuc)
    E(ZPE)  - the the zero temperature vibrational energy from the frequency calculation
    E(vib)  - the the finite temperature correction to E(ZPE) due to population
              of excited vibrational states
    E(rot)  - is the rotational thermal energy
    E(trans)- is the translational thermal energy

Summary of contributions to the inner energy U:
Electronic energy                ...  -1161.01997933 Eh
Zero point energy                ...      0.04943431 Eh      31.02 kcal/mol
Thermal vibrational correction   ...      0.00086777 Eh       0.54 kcal/mol
Thermal rotational correction    ...      0.00141627 Eh       0.89 kcal/mol
Thermal translational correction ...      0.00141627 Eh       0.89 kcal/mol
-----------------------------------------------------------------------
Total thermal energy                  -1160.96684471 Eh

Summary of corrections to the electronic energy:
(perhaps to be used in another calculation)
Total thermal correction                  0.00370032 Eh       2.32 kcal/mol
Non-thermal (ZPE) correction              0.04943431 Eh      31.02 kcal/mol
-----------------------------------------------------------------------
Total correction                          0.05313462 Eh      33.34 kcal/mol

--------
ENTHALPY
--------

The enthalpy is H = U + kB*T
                kB is Boltzmann's constant
Total free energy                 ...  -1160.96684471 Eh
Thermal Enthalpy correction       ...      0.00094421 Eh       0.59 kcal/mol
-----------------------------------------------------------------------
Total Enthalpy                    ...  -1160.96590050 Eh

Note: Only C1 symmetry has been detected, increase convergence thresholds
      if your molecule has a higher symmetry. Symmetry factor of 1.0 is
      used for the rotational entropy correction.

Note: Rotational entropy computed according to Herzberg
Infrared and Raman Spectra, Chapter V,1, Van Nostrand Reinhold, 1945
Point Group:  C1, Symmetry Number:   1
Rotational constants in cm-1:     6.663722     0.242112     0.239754

Vibrational entropy computed according to the QRRHO of S. Grimme
Chem.Eur.J. 2012 18 9955

-------
ENTROPY
-------

The entropy contributions are T*S = T*(S(el)+S(vib)+S(rot)+S(trans))
     S(el)   - electronic entropy
     S(vib)  - vibrational entropy
     S(rot)  - rotational entropy
     S(trans)- translational entropy
The entropies will be listed as multiplied by the temperature to get
units of energy

Electronic entropy                ...      0.00000000 Eh      0.00 kcal/mol
Vibrational entropy               ...      0.00124879 Eh      0.78 kcal/mol
Rotational entropy                ...      0.00995921 Eh      6.25 kcal/mol
Translational entropy             ...      0.01742549 Eh     10.93 kcal/mol
-----------------------------------------------------------------------
Final entropy term                ...      0.02863348 Eh     17.97 kcal/mol

In case the symmetry of your molecule has not been determined correctly
or in case you have a reason to use a different symmetry number we print
out the resulting rotational entropy values for sn=1,12 :
 --------------------------------------------------------
|  sn= 1 | S(rot)=       0.00995921 Eh      6.25 kcal/mol|
|  sn= 2 | S(rot)=       0.00930475 Eh      5.84 kcal/mol|
|  sn= 3 | S(rot)=       0.00892192 Eh      5.60 kcal/mol|
|  sn= 4 | S(rot)=       0.00865030 Eh      5.43 kcal/mol|
|  sn= 5 | S(rot)=       0.00843961 Eh      5.30 kcal/mol|
|  sn= 6 | S(rot)=       0.00826746 Eh      5.19 kcal/mol|
|  sn= 7 | S(rot)=       0.00812192 Eh      5.10 kcal/mol|
|  sn= 8 | S(rot)=       0.00799584 Eh      5.02 kcal/mol|
|  sn= 9 | S(rot)=       0.00788463 Eh      4.95 kcal/mol|
|  sn=10 | S(rot)=       0.00778515 Eh      4.89 kcal/mol|
|  sn=11 | S(rot)=       0.00769516 Eh      4.83 kcal/mol|
|  sn=12 | S(rot)=       0.00761301 Eh      4.78 kcal/mol|
 --------------------------------------------------------

-------------------
GIBBS FREE ENERGY
-------------------

The Gibbs free energy is G = H - T*S

Total enthalpy                    ...  -1160.96590050 Eh
Total entropy correction          ...     -0.02863348 Eh    -17.97 kcal/mol
-----------------------------------------------------------------------
Final Gibbs free energy         ...  -1160.99453398 Eh

For completeness - the Gibbs free energy minus the electronic energy
G-E(el)                           ...      0.02544535 Eh     15.97 kcal/mol

                             ****ORCA TERMINATED NORMALLY****
TOTAL RUN TIME: 0 days 0 hours 7 minutes 56 seconds 67 msec
