                         Program Version 5.0.2 -  RELEASE  -
|  1> #------------------------------------------------------
|  2> # After the Orca calculation you will get two inter-
|  3> # action energies at the end of the output file. The
|  4> # difference is the negative BSSE.
|  5> #
|  6> # The script will set the orbital guess PModel for
|  7> # jobs 2-5 since Orca will try to use the .gbw-files of
|  8> # the earlier calculations which does not work for jobs
|  9> # 2 and 3 and does not help for jobs 4 and 5.
| 10> #------------------------------------------------------
| 11> #
| 12> #-------------------------
| 13> #     First the dimer
| 14> #-------------------------
| 15>
| 16> %id "dimer"
| 17> ! DLPNO-CCSD(T) aug-cc-pVTZ aug-cc-pVTZ/C TightPNO
| 18> %maxcore 2000
| 19> %pal
| 20> nprocs 10
| 21> end
| 22>
| 23> * xyz 0 1
| 24> H    -7.032635    -3.418055    -3.418330
| 25> O    -7.645069    -4.030457    -3.889770
| 26> H    -7.088194    -4.461980    -4.563700
| 27> H    -5.180147    -5.723529    -5.359303
| 28> O    -5.827192    -5.097073    -5.727833
| 29> H    -5.285215    -4.305208    -5.942586
| 30> C    -7.606823    -6.185609    -8.665396
| 31> O    -6.254148    -6.339586    -8.283159
| 32> H    -7.714315    -6.601587    -9.665660
| 33> H    -6.140880    -5.918508    -7.413600
| 34> H    -8.296331    -6.721365    -8.002909
| 35> H    -7.917318    -5.135624    -8.705110
| 36> *
| 37>
| 38> #--------------------------
| 39> #   Now the fragments at
| 40> #      dimer-geometry
| 41> #-------------------------
| 42>
| 43> $new_job
| 44> %id "fragment"
| 45> %scf guess PModel end
| 46> ! DLPNO-CCSD(T) aug-cc-pVTZ aug-cc-pVTZ/C TightPNO
| 47> %maxcore 2000
| 48> %pal
| 49> nprocs 10
| 50> end
| 51>
| 52> * xyz 0 1
| 53> H    -7.032635    -3.418055    -3.418330
| 54> O    -7.645069    -4.030457    -3.889770
| 55> H    -7.088194    -4.461980    -4.563700
| 56> H    -5.180147    -5.723529    -5.359303
| 57> O    -5.827192    -5.097073    -5.727833
| 58> H    -5.285215    -4.305208    -5.942586
| 59> *
| 60>
| 61> $new_job
| 62> %id "fragment"
| 63> %scf guess PModel end
| 64> ! DLPNO-CCSD(T) aug-cc-pVTZ aug-cc-pVTZ/C TightPNO
| 65> %maxcore 2000
| 66> %pal
| 67> nprocs 6
| 68> end
| 69>
| 70> * xyz 0 1
| 71> C    -7.606823    -6.185609    -8.665396
| 72> O    -6.254148    -6.339586    -8.283159
| 73> H    -7.714315    -6.601587    -9.665660
| 74> H    -6.140880    -5.918508    -7.413600
| 75> H    -8.296331    -6.721365    -8.002909
| 76> H    -7.917318    -5.135624    -8.705110
| 77> *
| 78>
| 79> #--------------------------
| 80> #   Now the fragments at
| 81> #   dimer-geometry with
| 82> #     the dimer-basis
| 83> #-------------------------
| 84>
| 85> $new_job
| 86> %id "ghost"
| 87> %scf guess PModel end
| 88> ! DLPNO-CCSD(T) aug-cc-pVTZ aug-cc-pVTZ/C TightPNO
| 89> %maxcore 2000
| 90> %pal
| 91> nprocs 10
| 92> end
| 93>
| 94> * xyz 0 1
| 95> H         -7.032635    -3.418055    -3.418330
| 96> O         -7.645069    -4.030457    -3.889770
| 97> H         -7.088194    -4.461980    -4.563700
| 98> H         -5.180147    -5.723529    -5.359303
| 99> O         -5.827192    -5.097073    -5.727833
|100> H         -5.285215    -4.305208    -5.942586
|101> C :       -7.606823    -6.185609    -8.665396
|102> O :       -6.254148    -6.339586    -8.283159
|103> H :       -7.714315    -6.601587    -9.665660
|104> H :       -6.140880    -5.918508    -7.413600
|105> H :       -8.296331    -6.721365    -8.002909
|106> H :       -7.917318    -5.135624    -8.705110
|107> *
|108>
|109> $new_job
|110> %id "ghost"
|111> %scf guess PModel end
|112> ! DLPNO-CCSD(T) aug-cc-pVTZ aug-cc-pVTZ/C TightPNO
|113> %maxcore 2000
|114> %pal
|115> nprocs 6
|116> end
|117>
|118> * xyz 0 1
|119> H :       -7.032635    -3.418055    -3.418330
|120> O :       -7.645069    -4.030457    -3.889770
|121> H :       -7.088194    -4.461980    -4.563700
|122> H :       -5.180147    -5.723529    -5.359303
|123> O :       -5.827192    -5.097073    -5.727833
|124> H :       -5.285215    -4.305208    -5.942586
|125> C         -7.606823    -6.185609    -8.665396
|126> O         -6.254148    -6.339586    -8.283159
|127> H         -7.714315    -6.601587    -9.665660
|128> H         -6.140880    -5.918508    -7.413600
|129> H         -8.296331    -6.721365    -8.002909
|130> H         -7.917318    -5.135624    -8.705110
|131> *
|132>
|133>
|134>                          ****END OF INPUT****
 Total Charge           Charge          ....    0
 Multiplicity           Mult            ....    1
 Number of Electrons    NEL             ....   38
E(0)                                       ...   -267.213487824
E(0)                                       ...   -267.213487824
E(CORR)(strong-pairs)                      ...     -1.009802087
E(CORR)(weak-pairs)                        ...     -0.000599224
E(CORR)(corrected)                         ...     -1.010401311
E(TOT)                                     ...   -268.223889135
FINAL SINGLE POINT ENERGY      -268.257198996055
FINAL SINGLE POINT ENERGY      -152.689116595166
FINAL SINGLE POINT ENERGY      -115.561761792529
FINAL SINGLE POINT ENERGY      -152.689679320780

CARTESIAN COORDINATES (ANGSTROEM)
---------------------------------
  H     -7.032635   -3.418055   -3.418330
  O     -7.645069   -4.030457   -3.889770
  H     -7.088194   -4.461980   -4.563700
  H     -5.180147   -5.723529   -5.359303
  O     -5.827192   -5.097073   -5.727833
  H     -5.285215   -4.305208   -5.942586
  C     -7.606823   -6.185609   -8.665396
  O     -6.254148   -6.339586   -8.283159
  H     -7.714315   -6.601587   -9.665660
  H     -6.140880   -5.918508   -7.413600
  H     -8.296331   -6.721365   -8.002909
  H     -7.917318   -5.135624   -8.705110

 Multiplicity           Mult            ....    1
 Number of Electrons    NEL             ....   18
 Basis Dimension        Dim             ....  368

ORBITAL ENERGIES
----------------

  NO   OCC          E(Eh)            E(eV)
   0   2.0000     -20.561776      -559.5144
   1   2.0000     -11.271396      -306.7103
   2   2.0000      -1.357954       -36.9518
   3   2.0000      -0.924106       -25.1462
   4   2.0000      -0.690534       -18.7904
   5   2.0000      -0.619665       -16.8619
   6   2.0000      -0.595253       -16.1976
   7   2.0000      -0.502881       -13.6841
   8   2.0000      -0.450897       -12.2695
   9   0.0000       0.020067         0.5461
  10   0.0000       0.036798         1.0013
  11   0.0000       0.042601         1.1592
  12   0.0000       0.044322         1.2061
  13   0.0000       0.051687         1.4065

MULLIKEN ATOMIC CHARGES
-----------------------
   0 H :    0.000056
   1 O :   -0.000116
   2 H :    0.000132
   3 H :    0.000697
   4 O :    0.008568
   5 H :    0.001051
   6 C :   -0.694275
   7 O :   -0.561809
   8 H :    0.341962
   9 H :    0.281835
  10 H :    0.308568
  11 H :    0.313332
Sum of atomic charges:   -0.0000000

LOEWDIN ATOMIC CHARGES
----------------------
   0 H :   -0.000061
   1 O :   -0.000114
   2 H :   -0.001150
   3 H :   -0.013885
   4 O :   -0.052367
   5 H :   -0.011353
   6 C :    0.327503
   7 O :    0.812871
   8 H :   -0.197268
   9 H :   -0.491072
  10 H :   -0.186596
  11 H :   -0.186510

  Mayer bond orders larger than 0.100000
B(  6-C ,  7-O ) :   0.8834 B(  6-C ,  8-H ) :   0.9137 B(  6-C , 10-H ) :   0.8950
B(  6-C , 11-H ) :   0.8867 B(  7-O ,  9-H ) :   0.8809

E(0)                                       ...   -115.091443392
E(CORR)(strong-pairs)                      ...     -0.455199784
E(CORR)(weak-pairs)                        ...     -0.000203324
E(CORR)(corrected)                         ...     -0.455403108
E(TOT)                                     ...   -115.546846501
E(CCSD(T))                                 ...   -115.562180963
FINAL SINGLE POINT ENERGY      -115.562180962553

DIPOLE MOMENT
-------------
                                X             Y             Z
Electronic contribution:      1.72968      -0.25912       0.37214
Nuclear contribution   :     -2.23079       0.58684       0.00323
                        -----------------------------------------
Total Dipole Moment    :     -0.50111       0.32772       0.37537
                        -----------------------------------------
Magnitude (a.u.)       :      0.70669
Magnitude (Debye)      :      1.79627

Rotational constants in cm-1:     4.279461     0.830455     0.800388
Rotational constants in MHz : 128295.008539 24896.411732 23995.042361

                             ****ORCA TERMINATED NORMALLY****
TOTAL RUN TIME: 0 days 0 hours 11 minutes 32 seconds 482 msec
