                         Program Version 5.0.2 -  RELEASE  -
|  1> !QM/XTB2 B97-3c tightopt
|  2> !NumFreq
|  3> %pal
|  4> nprocs 28
|  5> end
|  6> %qmmm
|  7> QMAtoms {438 439 440 501 502 503 600 601 602 603 604 605 } end
|  8> ActiveAtoms {438 439 440 501 502 503 600 601 602 603 604 605 } end
|  9> ExtendActiveRegion no
| 10> end
| 11> %geom
| 12> MaxIter 500
| 13> end
| 14> *xyzfile 0 1 xtbopt.xyz
| 15>
| 16>
| 17>                          ****END OF INPUT****
FINAL SINGLE POINT ENERGY (L-QM2)    -1026.584922165790
FINAL SINGLE POINT ENERGY (S-QM2)      -18.413870271810
 Total Charge           Charge          ....    0
 Multiplicity           Mult            ....    1
 Number of Electrons    NEL             ....   38
Dispersion correction           -0.009811014
FINAL SINGLE POINT ENERGY      -268.533801693806
FINAL SINGLE POINT ENERGY (QM/QM2)    -1276.704853587786
Dispersion correction            ... done
FINAL SINGLE POINT ENERGY (L-QM2)    -1026.583605038960
FINAL SINGLE POINT ENERGY (S-QM2)      -18.415638542690
Dispersion correction           -0.009530252
FINAL SINGLE POINT ENERGY      -268.537852962068
FINAL SINGLE POINT ENERGY (QM/QM2)    -1276.705819458338
Dispersion correction            ... done
FINAL SINGLE POINT ENERGY (L-QM2)    -1026.583617701260
FINAL SINGLE POINT ENERGY (S-QM2)      -18.415196100500
Dispersion correction           -0.009520836
Dispersion correction            ... done
Dispersion correction            ... done
Dispersion correction           -0.009497044
FINAL SINGLE POINT ENERGY      -268.537907660881
FINAL SINGLE POINT ENERGY (QM/QM2)    -1276.706242418261
Dispersion correction            ... done
FINAL SINGLE POINT ENERGY (L-QM2)    -1026.583429694810
FINAL SINGLE POINT ENERGY (S-QM2)      -18.415094332770
Dispersion correction           -0.009496685
FINAL SINGLE POINT ENERGY      -268.537906956950
FINAL SINGLE POINT ENERGY (QM/QM2)    -1276.706242318990
Dispersion correction            ... done
                    ***********************HURRAY********************
FINAL SINGLE POINT ENERGY (L-QM2)    -1026.583427430410
FINAL SINGLE POINT ENERGY (S-QM2)      -18.415092904780

CARTESIAN COORDINATES (ANGSTROEM)
---------------------------------
  H     -7.032635   -3.418055   -3.418330
  O     -7.645069   -4.030457   -3.889770
  H     -7.088194   -4.461980   -4.563700
  H     -5.180147   -5.723529   -5.359303
  O     -5.827192   -5.097073   -5.727833
  H     -5.285215   -4.305208   -5.942586
  C     -7.606823   -6.185609   -8.665396
  O     -6.254148   -6.339586   -8.283159
  H     -7.714315   -6.601587   -9.665660
  H     -6.140880   -5.918508   -7.413600
  H     -8.296331   -6.721365   -8.002909
  H     -7.917318   -5.135624   -8.705110

 Multiplicity           Mult            ....    1
 Number of Electrons    NEL             ....   38
 Basis Dimension        Dim             ....  115

ORBITAL ENERGIES
----------------

  NO   OCC          E(Eh)            E(eV)
   0   2.0000     -18.795191      -511.4431
   1   2.0000     -18.758675      -510.4495
   2   2.0000     -18.718522      -509.3569
   3   2.0000      -9.915985      -269.8277
   4   2.0000      -0.974436       -26.5157
   5   2.0000      -0.936645       -25.4874
   6   2.0000      -0.915459       -24.9109
   7   2.0000      -0.605171       -16.4675
   8   2.0000      -0.516050       -14.0424
   9   2.0000      -0.490382       -13.3440
  10   2.0000      -0.445325       -12.1179
  11   2.0000      -0.392041       -10.6680
  12   2.0000      -0.374991       -10.2040
  13   2.0000      -0.365025        -9.9328
  14   2.0000      -0.359666        -9.7870
  15   2.0000      -0.311536        -8.4773
  16   2.0000      -0.283676        -7.7192
  17   2.0000      -0.269051        -7.3213
  18   2.0000      -0.208185        -5.6650
  19   0.0000      -0.015111        -0.4112
  20   0.0000       0.041019         1.1162
  21   0.0000       0.056021         1.5244
  22   0.0000       0.086828         2.3627
  23   0.0000       0.089854         2.4451

MULLIKEN ATOMIC CHARGES
-----------------------
   0 H :    0.492680
   1 O :   -0.991099
   2 H :    0.464382
   3 H :    0.517513
   4 O :   -0.978890
   5 H :    0.514829
   6 C :   -0.335177
   7 O :   -0.577299
   8 H :    0.167337
   9 H :    0.430424
  10 H :    0.149642
  11 H :    0.145658
Sum of atomic charges:   -0.0000000

LOEWDIN ATOMIC CHARGES
----------------------
   0 H :    0.378252
   1 O :   -0.796856
   2 H :    0.365905
   3 H :    0.390077
   4 O :   -0.686237
   5 H :    0.391479
   6 C :   -0.080031
   7 O :   -0.785859
   8 H :    0.168902
   9 H :    0.356915
  10 H :    0.148979
  11 H :    0.148474

  Mayer bond orders larger than 0.100000
B(  0-H ,  1-O ) :   0.7375 B(  1-O ,  2-H ) :   0.6885 B(  2-H ,  4-O ) :   0.1069
B(  3-H ,  4-O ) :   0.7115 B(  4-O ,  5-H ) :   0.7125 B(  6-C ,  7-O ) :   0.9251
B(  6-C ,  8-H ) :   0.9711 B(  6-C , 10-H ) :   0.9547 B(  6-C , 11-H ) :   0.9557
B(  7-O ,  9-H ) :   0.7392

Dispersion correction           -0.009496679
FINAL SINGLE POINT ENERGY      -268.537907829888
FINAL SINGLE POINT ENERGY (QM/QM2)    -1276.706242355518

DIPOLE MOMENT
-------------
                                X             Y             Z
Electronic contribution:      1.88654       0.00630       1.11341
Nuclear contribution   :     -0.32124       0.51235      -0.81472
                        -----------------------------------------
Total Dipole Moment    :      1.56530       0.51865       0.29869
                        -----------------------------------------
Magnitude (a.u.)       :      1.67582
Magnitude (Debye)      :      4.25959

VIBRATIONAL FREQUENCIES
-----------------------

Scaling factor for frequencies =  1.000000000 (already applied!)

   0:         0.00 cm**-1
   1:         0.00 cm**-1
   2:         0.00 cm**-1
   3:         0.00 cm**-1
   4:         0.00 cm**-1
   5:         0.00 cm**-1
   6:       109.04 cm**-1
   7:       125.71 cm**-1
   8:       144.78 cm**-1
   9:       180.60 cm**-1
  10:       227.08 cm**-1
  11:       275.11 cm**-1
  12:       578.43 cm**-1
  13:       635.29 cm**-1
  14:       704.91 cm**-1
  15:       783.04 cm**-1
  16:       844.78 cm**-1
  17:       915.99 cm**-1
  18:       954.73 cm**-1
  19:      1054.00 cm**-1
  20:      1121.28 cm**-1
  21:      1164.94 cm**-1
  22:      1449.51 cm**-1
  23:      1476.77 cm**-1
  24:      1497.06 cm**-1
  25:      1518.06 cm**-1
  26:      1728.62 cm**-1
  27:      1766.93 cm**-1
  28:      2930.15 cm**-1
  29:      2968.82 cm**-1
  30:      3052.54 cm**-1
  31:      3337.92 cm**-1
  32:      3406.14 cm**-1
  33:      3515.20 cm**-1
  34:      3556.97 cm**-1
  35:      3629.54 cm**-1

IR SPECTRUM
-----------

 Mode   freq       eps      Int      T**2         TX        TY        TZ
       cm**-1   L/(mol*cm) km/mol    a.u.
----------------------------------------------------------------------------
  6:    109.04   0.001015    5.13  0.002904  (-0.010501 -0.027888 -0.044898)
  7:    125.71   0.000971    4.91  0.002409  ( 0.004029  0.041075 -0.026573)
  8:    144.78   0.002090   10.56  0.004505  ( 0.007132  0.061643 -0.025578)
  9:    180.60   0.000448    2.26  0.000773  ( 0.008014  0.000577  0.026623)
 10:    227.08   0.000852    4.31  0.001171  (-0.015694  0.010500  0.028542)
 11:    275.11   0.001177    5.95  0.001335  ( 0.009213 -0.022334 -0.027402)
 12:    578.43   0.001473    7.44  0.000795  ( 0.014457  0.016795 -0.017425)
 13:    635.29   0.003943   19.93  0.001937  (-0.008292 -0.028996  0.032050)
 14:    704.91   0.003904   19.73  0.001728  (-0.012961 -0.016943 -0.035681)
 15:    783.04   0.035863  181.24  0.014292  (-0.004062 -0.112773 -0.039473)
 16:    844.78   0.037876  191.41  0.013992  (-0.001216 -0.017995  0.116903)
 17:    915.99   0.017859   90.25  0.006084  ( 0.007851 -0.000318 -0.077604)
 18:    954.73   0.022404  113.22  0.007323  ( 0.026152 -0.073027  0.036141)
 19:   1054.00   0.019041   96.23  0.005638  (-0.072930  0.009321 -0.015231)
 20:   1121.28   0.001737    8.78  0.000483  (-0.020043  0.006925  0.005800)
 21:   1164.94   0.000065    0.33  0.000017  (-0.000448 -0.003811  0.001603)
 22:   1449.51   0.004541   22.95  0.000978  (-0.029822  0.004397 -0.008307)
 23:   1476.77   0.001125    5.68  0.000238  ( 0.013707  0.001197  0.006955)
 24:   1497.06   0.000283    1.43  0.000059  (-0.001021 -0.006688  0.003633)
 25:   1518.06   0.000623    3.15  0.000128  (-0.001361 -0.005753 -0.009651)
 26:   1728.62   0.026445  133.64  0.004774  ( 0.065038 -0.003810 -0.023012)
 27:   1766.93   0.009477   47.89  0.001674  ( 0.037603  0.007676  0.014174)
 28:   2930.15   0.016553   83.65  0.001763  ( 0.041502 -0.005457  0.003277)
 29:   2968.82   0.016256   82.15  0.001709  ( 0.006640  0.037146 -0.016878)
 30:   3052.54   0.011113   56.16  0.001136  (-0.001883 -0.014209 -0.030506)
 31:   3337.92   0.004031   20.37  0.000377  (-0.010457 -0.010098 -0.012866)
 32:   3406.14   0.014342   72.48  0.001314  (-0.028914 -0.016948  0.013809)
 33:   3515.20   0.169090  854.51  0.015011  (-0.034193  0.061947  0.100023)
 34:   3556.97   0.044161  223.17  0.003874  (-0.047874  0.003773 -0.039601)
 35:   3629.54   0.009221   46.60  0.000793  (-0.001774  0.025821 -0.011089)

--------------------------
THERMOCHEMISTRY AT 298.15K
--------------------------

Temperature         ... 298.15 K
Pressure            ... 1.00 atm
Total Mass          ... 68.07 AMU

Throughout the following assumptions are being made:
  (1) The electronic state is orbitally nondegenerate
  (2) There are no thermally accessible electronically excited states
  (3) Hindered rotations indicated by low frequency modes are not
      treated as such but are treated as vibrations and this may
      cause some error
  (4) All equations used are the standard statistical mechanics
      equations for an ideal gas
  (5) All vibrations are strictly harmonic

freq.     109.04  E(vib)   ...       0.45
freq.     125.71  E(vib)   ...       0.43
freq.     144.78  E(vib)   ...       0.41
freq.     180.60  E(vib)   ...       0.37
freq.     227.08  E(vib)   ...       0.33
freq.     275.11  E(vib)   ...       0.28
freq.     578.43  E(vib)   ...       0.11
freq.     635.29  E(vib)   ...       0.09
freq.     704.91  E(vib)   ...       0.07
freq.     783.04  E(vib)   ...       0.05
freq.     844.78  E(vib)   ...       0.04
freq.     915.99  E(vib)   ...       0.03
freq.     954.73  E(vib)   ...       0.03
freq.    1054.00  E(vib)   ...       0.02
freq.    1121.28  E(vib)   ...       0.01
freq.    1164.94  E(vib)   ...       0.01
freq.    1449.51  E(vib)   ...       0.00
freq.    1476.77  E(vib)   ...       0.00
freq.    1497.06  E(vib)   ...       0.00
freq.    1518.06  E(vib)   ...       0.00
freq.    1728.62  E(vib)   ...       0.00
freq.    1766.93  E(vib)   ...       0.00
freq.    2930.15  E(vib)   ...       0.00
freq.    2968.82  E(vib)   ...       0.00
freq.    3052.54  E(vib)   ...       0.00
freq.    3337.92  E(vib)   ...       0.00
freq.    3406.14  E(vib)   ...       0.00
freq.    3515.20  E(vib)   ...       0.00
freq.    3556.97  E(vib)   ...       0.00
freq.    3629.54  E(vib)   ...       0.00

------------
INNER ENERGY
------------

The inner energy is: U= E(el) + E(ZPE) + E(vib) + E(rot) + E(trans)
    E(el)   - is the total energy from the electronic structure calculation
              = E(kin-el) + E(nuc-el) + E(el-el) + E(nuc-nuc)
    E(ZPE)  - the the zero temperature vibrational energy from the frequency calculation
    E(vib)  - the the finite temperature correction to E(ZPE) due to population
              of excited vibrational states
    E(rot)  - is the rotational thermal energy
    E(trans)- is the translational thermal energy

Summary of contributions to the inner energy U:
Electronic energy                ...  -1276.70624236 Eh
Zero point energy                ...      0.10400728 Eh      65.27 kcal/mol
Thermal vibrational correction   ...      0.00438578 Eh       2.75 kcal/mol
Thermal rotational correction    ...      0.00141627 Eh       0.89 kcal/mol
Thermal translational correction ...      0.00141627 Eh       0.89 kcal/mol
-----------------------------------------------------------------------
Total thermal energy                  -1276.59501676 Eh

Summary of corrections to the electronic energy:
(perhaps to be used in another calculation)
Total thermal correction                  0.00721832 Eh       4.53 kcal/mol
Non-thermal (ZPE) correction              0.10400728 Eh      65.27 kcal/mol
-----------------------------------------------------------------------
Total correction                          0.11122560 Eh      69.79 kcal/mol

--------
ENTHALPY
--------

The enthalpy is H = U + kB*T
                kB is Boltzmann's constant
Total free energy                 ...  -1276.59501676 Eh
Thermal Enthalpy correction       ...      0.00094421 Eh       0.59 kcal/mol
-----------------------------------------------------------------------
Total Enthalpy                    ...  -1276.59407255 Eh

Note: Only C1 symmetry has been detected, increase convergence thresholds
      if your molecule has a higher symmetry. Symmetry factor of 1.0 is
      used for the rotational entropy correction.

Note: Rotational entropy computed according to Herzberg
Infrared and Raman Spectra, Chapter V,1, Van Nostrand Reinhold, 1945
Point Group:  C1, Symmetry Number:   1
Rotational constants in cm-1:     0.322079     0.052491     0.045892

Vibrational entropy computed according to the QRRHO of S. Grimme
Chem.Eur.J. 2012 18 9955

-------
ENTROPY
-------

The entropy contributions are T*S = T*(S(el)+S(vib)+S(rot)+S(trans))
     S(el)   - electronic entropy
     S(vib)  - vibrational entropy
     S(rot)  - rotational entropy
     S(trans)- translational entropy
The entropies will be listed as multiplied by the temperature to get
units of energy

Electronic entropy                ...      0.00000000 Eh      0.00 kcal/mol
Vibrational entropy               ...      0.00784924 Eh      4.93 kcal/mol
Rotational entropy                ...      0.01289170 Eh      8.09 kcal/mol
Translational entropy             ...      0.01832654 Eh     11.50 kcal/mol
-----------------------------------------------------------------------
Final entropy term                ...      0.03906748 Eh     24.52 kcal/mol

In case the symmetry of your molecule has not been determined correctly
or in case you have a reason to use a different symmetry number we print
out the resulting rotational entropy values for sn=1,12 :
 --------------------------------------------------------
|  sn= 1 | S(rot)=       0.01289170 Eh      8.09 kcal/mol|
|  sn= 2 | S(rot)=       0.01223725 Eh      7.68 kcal/mol|
|  sn= 3 | S(rot)=       0.01185441 Eh      7.44 kcal/mol|
|  sn= 4 | S(rot)=       0.01158279 Eh      7.27 kcal/mol|
|  sn= 5 | S(rot)=       0.01137210 Eh      7.14 kcal/mol|
|  sn= 6 | S(rot)=       0.01119996 Eh      7.03 kcal/mol|
|  sn= 7 | S(rot)=       0.01105441 Eh      6.94 kcal/mol|
|  sn= 8 | S(rot)=       0.01092833 Eh      6.86 kcal/mol|
|  sn= 9 | S(rot)=       0.01081713 Eh      6.79 kcal/mol|
|  sn=10 | S(rot)=       0.01071765 Eh      6.73 kcal/mol|
|  sn=11 | S(rot)=       0.01062766 Eh      6.67 kcal/mol|
|  sn=12 | S(rot)=       0.01054550 Eh      6.62 kcal/mol|
 --------------------------------------------------------

-------------------
GIBBS FREE ENERGY
-------------------

The Gibbs free energy is G = H - T*S

Total enthalpy                    ...  -1276.59407255 Eh
Total entropy correction          ...     -0.03906748 Eh    -24.52 kcal/mol
-----------------------------------------------------------------------
Final Gibbs free energy         ...  -1276.63314003 Eh

For completeness - the Gibbs free energy minus the electronic energy
G-E(el)                           ...      0.07310233 Eh     45.87 kcal/mol

                             ****ORCA TERMINATED NORMALLY****
TOTAL RUN TIME: 0 days 0 hours 11 minutes 0 seconds 432 msec
