                         Program Version 5.0.2 -  RELEASE  -
|  1> !QM/XTB2 DLPNO-CCSD(T) aug-cc-pVTZ aug-cc-pVTZ/C TightPNO
|  2> %maxcore 2000
|  3> %pal
|  4> nprocs 10
|  5> end
|  6> %qmmm
|  7> QMAtoms {438 439 440 501 502 503 600 601 602 603 604 605 } end
|  8> ActiveAtoms {438 439 440 501 502 503 600 601 602 603 604 605 } end
|  9> end
| 10> *xyzfile 0 1 grain_mol_opt.xyz
| 11>
| 12>
| 13>                          ****END OF INPUT****
FINAL SINGLE POINT ENERGY (L-QM2)    -1026.583427430300
FINAL SINGLE POINT ENERGY (S-QM2)      -18.415092943590

CARTESIAN COORDINATES (ANGSTROEM)
---------------------------------
  H     -7.032635   -3.418055   -3.418330
  O     -7.645069   -4.030457   -3.889770
  H     -7.088194   -4.461980   -4.563700
  H     -5.180147   -5.723529   -5.359303
  O     -5.827192   -5.097073   -5.727833
  H     -5.285215   -4.305208   -5.942586
  C     -7.606823   -6.185609   -8.665396
  O     -6.254148   -6.339586   -8.283159
  H     -7.714315   -6.601587   -9.665660
  H     -6.140880   -5.918508   -7.413600
  H     -8.296331   -6.721365   -8.002909
  H     -7.917318   -5.135624   -8.705110

 Total Charge           Charge          ....    0
 Multiplicity           Mult            ....    1
 Number of Electrons    NEL             ....   38
 Basis Dimension        Dim             ....  368

ORBITAL ENERGIES
----------------

  NO   OCC          E(Eh)            E(eV)
   0   2.0000     -20.607020      -560.7455
   1   2.0000     -20.581147      -560.0415
   2   2.0000     -20.536181      -558.8179
   3   2.0000     -11.257311      -306.3270
   4   2.0000      -1.390604       -37.8403
   5   2.0000      -1.357363       -36.9357
   6   2.0000      -1.336586       -36.3703
   7   2.0000      -0.909231       -24.7414
   8   2.0000      -0.743911       -20.2428
   9   2.0000      -0.727511       -19.7966
  10   2.0000      -0.682265       -18.5654
  11   2.0000      -0.630920       -17.1682
  12   2.0000      -0.604324       -16.4445
  13   2.0000      -0.603329       -16.4174
  14   2.0000      -0.578674       -15.7465
  15   2.0000      -0.547281       -14.8923
  16   2.0000      -0.530900       -14.4465
  17   2.0000      -0.481766       -13.1095
  18   2.0000      -0.431959       -11.7542
  19   0.0000       0.010995         0.2992
  20   0.0000       0.037107         1.0097
  21   0.0000       0.039266         1.0685
  22   0.0000       0.045264         1.2317
  23   0.0000       0.053800         1.4640

MULLIKEN ATOMIC CHARGES
-----------------------
   0 H :    0.257515
   1 O :   -0.637104
   2 H :    0.345751
   3 H :    0.215016
   4 O :   -0.393100
   5 H :    0.220163
   6 C :   -0.707388
   7 O :   -0.589204
   8 H :    0.336724
   9 H :    0.340966
  10 H :    0.303711
  11 H :    0.306950
Sum of atomic charges:   -0.0000000

LOEWDIN ATOMIC CHARGES
----------------------
   0 H :   -0.468495
   1 O :    0.984532
   2 H :   -0.707787
   3 H :   -0.395623
   4 O :    1.121182
   5 H :   -0.375713
   6 C :    0.311325
   7 O :    0.786405
   8 H :   -0.202835
   9 H :   -0.673556
  10 H :   -0.189458
  11 H :   -0.189977

  Mayer bond orders larger than 0.100000
B(  0-H ,  1-O ) :   0.9824 B(  1-O ,  2-H ) :   0.8440 B(  3-H ,  4-O ) :   1.0316
B(  4-O ,  5-H ) :   1.0281 B(  6-C ,  7-O ) :   0.8997 B(  6-C ,  8-H ) :   0.9166
B(  6-C , 10-H ) :   0.8973 B(  6-C , 11-H ) :   0.8901 B(  7-O ,  9-H ) :   0.8498

E(0)                                       ...   -267.270525479
E(0)                                       ...   -267.270525479
E(CORR)(strong-pairs)                      ...     -1.007962551
E(CORR)(weak-pairs)                        ...     -0.000595318
E(CORR)(corrected)                         ...     -1.008557869
E(TOT)                                     ...   -268.279083348
E(CCSD(T))                                 ...   -268.312138011
FINAL SINGLE POINT ENERGY      -268.312138010621
FINAL SINGLE POINT ENERGY (QM/QM2)    -1276.480472497331

DIPOLE MOMENT
-------------
                                X             Y             Z
Electronic contribution:      1.86948       0.05006       1.14208
Nuclear contribution   :     -0.32124       0.51235      -0.81472
                        -----------------------------------------
Total Dipole Moment    :      1.54824       0.56241       0.32736
                        -----------------------------------------
Magnitude (a.u.)       :      1.67944
Magnitude (Debye)      :      4.26879

Rotational constants in cm-1:     0.322079     0.052491     0.045892
Rotational constants in MHz :  9655.696716  1573.646254  1375.800687

                             ****ORCA TERMINATED NORMALLY****
TOTAL RUN TIME: 0 days 0 hours 4 minutes 17 seconds 160 msec
