                         Program Version 5.0.2 -  RELEASE  -
|  1> ! DLPNO-CCSD(T) aug-cc-pVTZ aug-cc-pVTZ/C TightPNO
|  2> %maxcore 500
|  3> %pal
|  4> nprocs 7
|  5> end
|  6> *xyzfile 0 1 mol_inp.xyz
|  7>
|  8>
|  9>                          ****END OF INPUT****

CARTESIAN COORDINATES (ANGSTROEM)
---------------------------------
  C     -7.606823   -6.185609   -8.665396
  O     -6.254148   -6.339586   -8.283159
  H     -7.714315   -6.601587   -9.665660
  H     -6.140880   -5.918508   -7.413600
  H     -8.296331   -6.721365   -8.002909
  H     -7.917318   -5.135624   -8.705110

 Total Charge           Charge          ....    0
 Multiplicity           Mult            ....    1
 Number of Electrons    NEL             ....   18
 Basis Dimension        Dim             ....  184

ORBITAL ENERGIES
----------------

  NO   OCC          E(Eh)            E(eV)
   0   2.0000     -20.561787      -559.5147
   1   2.0000     -11.271395      -306.7103
   2   2.0000      -1.357979       -36.9525
   3   2.0000      -0.924116       -25.1465
   4   2.0000      -0.690549       -18.7908
   5   2.0000      -0.619675       -16.8622
   6   2.0000      -0.595261       -16.1979
   7   2.0000      -0.502891       -13.6844
   8   2.0000      -0.450910       -12.2699
   9   0.0000       0.028413         0.7731
  10   0.0000       0.042797         1.1646
  11   0.0000       0.046783         1.2730
  12   0.0000       0.053093         1.4447
  13   0.0000       0.099126         2.6974

MULLIKEN ATOMIC CHARGES
-----------------------
   0 C :   -0.620079
   1 O :   -0.512550
   2 H :    0.323368
   3 H :    0.206597
   4 H :    0.297752
   5 H :    0.304912
Sum of atomic charges:   -0.0000000

LOEWDIN ATOMIC CHARGES
----------------------
   0 C :    0.308545
   1 O :    0.760950
   2 H :   -0.199399
   3 H :   -0.490515
   4 H :   -0.189693
   5 H :   -0.189888

  Mayer bond orders larger than 0.100000
B(  0-C ,  1-O ) :   0.8273 B(  0-C ,  2-H ) :   0.9061 B(  0-C ,  4-H ) :   0.9070
B(  0-C ,  5-H ) :   0.8994 B(  1-O ,  3-H ) :   0.9744

E(0)                                       ...   -115.091367087
E(0)                                       ...   -115.091367087
E(CORR)(strong-pairs)                      ...     -0.454876686
E(CORR)(weak-pairs)                        ...     -0.000203461
E(CORR)(corrected)                         ...     -0.455080147
E(TOT)                                     ...   -115.546447234
E(CCSD(T))                                 ...   -115.561761793
FINAL SINGLE POINT ENERGY      -115.561761792529

DIPOLE MOMENT
-------------
                                X             Y             Z
Electronic contribution:      1.72977      -0.25919       0.37205
Nuclear contribution   :     -2.23079       0.58684       0.00323
                        -----------------------------------------
Total Dipole Moment    :     -0.50102       0.32765       0.37529
                        -----------------------------------------
Magnitude (a.u.)       :      0.70655
Magnitude (Debye)      :      1.79591

Rotational constants in cm-1:     4.279461     0.830455     0.800388
Rotational constants in MHz : 128295.008539 24896.411732 23995.042361

                             ****ORCA TERMINATED NORMALLY****
TOTAL RUN TIME: 0 days 0 hours 1 minutes 25 seconds 723 msec
