                         Program Version 5.0.2 -  RELEASE  -
|  1> !QM/XTB2 DLPNO-CCSD(T) aug-cc-pVTZ aug-cc-pVTZ/C TightPNO
|  2> %maxcore 2000
|  3> %pal
|  4> nprocs 10
|  5> end
|  6> %qmmm
|  7> QMAtoms {438 439 440 501 502 503 } end
|  8> ActiveAtoms {438 439 440 501 502 503 } end
|  9> end
| 10> *xyzfile 0 1 surf_inp.xyz
| 11>
| 12>
| 13>                          ****END OF INPUT****
FINAL SINGLE POINT ENERGY (L-QM2)    -1018.344357716240
FINAL SINGLE POINT ENERGY (S-QM2)      -10.181637441850

CARTESIAN COORDINATES (ANGSTROEM)
---------------------------------
  H     -7.032635   -3.418055   -3.418330
  O     -7.645069   -4.030457   -3.889770
  H     -7.088194   -4.461980   -4.563700
  H     -5.180147   -5.723529   -5.359303
  O     -5.827192   -5.097073   -5.727833
  H     -5.285215   -4.305208   -5.942586

 Total Charge           Charge          ....    0
 Multiplicity           Mult            ....    1
 Number of Electrons    NEL             ....   20
 Basis Dimension        Dim             ....  184

ORBITAL ENERGIES
----------------

  NO   OCC          E(Eh)            E(eV)
   0   2.0000     -20.581142      -560.0413
   1   2.0000     -20.570604      -559.7546
   2   2.0000      -1.362646       -37.0795
   3   2.0000      -1.344857       -36.5954
   4   2.0000      -0.719520       -19.5791
   5   2.0000      -0.712922       -19.3996
   6   2.0000      -0.610218       -16.6049
   7   2.0000      -0.587120       -15.9763
   8   2.0000      -0.521792       -14.1987
   9   2.0000      -0.518629       -14.1126
  10   0.0000       0.017056         0.4641
  11   0.0000       0.039866         1.0848
  12   0.0000       0.049036         1.3343
  13   0.0000       0.065030         1.7696
  14   0.0000       0.123544         3.3618

MULLIKEN ATOMIC CHARGES
-----------------------
   0 H :    0.261444
   1 O :   -0.632441
   2 H :    0.333595
   3 H :    0.242173
   4 O :   -0.453851
   5 H :    0.249080
Sum of atomic charges:    0.0000000

LOEWDIN ATOMIC CHARGES
----------------------
   0 H :   -0.471732
   1 O :    0.979847
   2 H :   -0.712951
   3 H :   -0.441141
   4 O :    1.065844
   5 H :   -0.419868

  Mayer bond orders larger than 0.100000
B(  0-H ,  1-O ) :   0.9702 B(  1-O ,  2-H ) :   0.8859 B(  3-H ,  4-O ) :   1.0019
B(  4-O ,  5-H ) :   0.9898

E(0)                                       ...   -152.175038411
E(0)                                       ...   -152.175038411
E(CORR)(strong-pairs)                      ...     -0.550437005
E(CORR)(weak-pairs)                        ...     -0.000161347
E(CORR)(corrected)                         ...     -0.550598353
E(TOT)                                     ...   -152.725636764
E(CCSD(T))                                 ...   -152.742888488
FINAL SINGLE POINT ENERGY      -152.742888487662
FINAL SINGLE POINT ENERGY (QM/QM2)    -1160.905608762052

DIPOLE MOMENT
-------------
                                X             Y             Z
Electronic contribution:      0.01933      -0.16076      -0.24986
Nuclear contribution   :      1.96298       0.28824      -0.04055
                        -----------------------------------------
Total Dipole Moment    :      1.98231       0.12748      -0.29041
                        -----------------------------------------
Magnitude (a.u.)       :      2.00752
Magnitude (Debye)      :      5.10272

Rotational constants in cm-1:     6.537353     0.234414     0.232202
Rotational constants in MHz : 195984.917055  7027.569166  6961.229070

                             ****ORCA TERMINATED NORMALLY****
TOTAL RUN TIME: 0 days 0 hours 1 minutes 1 seconds 388 msec
