                         Program Version 5.0.2 -  RELEASE  -
|  1> !B97-3c
|  2> !tightOPT tightSCF DEFGRID3 freq
|  3> %pal
|  4> nprocs 6
|  5> end
|  6> *xyz 0 1
|  7> C        -0.04954807103842    0.66470660749032   -0.00000000140752
|  8> O        -0.03892433353388   -0.74160101890422   -0.00000000564427
|  9> H        -1.09534081494088    0.96634015588509    0.00000000216724
| 10> H         0.87358678704300   -1.04891923553173    0.00000000731092
| 11> H         0.43789671809980    1.07369524281741    0.89173309318696
| 12> H         0.43789671437038    1.07369524824312   -0.89173309561333
| 13> *
| 14>
| 15>                          ****END OF INPUT****
 Total Charge           Charge          ....    0
 Multiplicity           Mult            ....    1
 Number of Electrons    NEL             ....   18
Dispersion correction           -0.004475325
FINAL SINGLE POINT ENERGY      -115.673251363155
Dispersion correction            ... done
Dispersion correction           -0.004469115
FINAL SINGLE POINT ENERGY      -115.673471998830
Dispersion correction            ... done
Dispersion correction           -0.004468025
FINAL SINGLE POINT ENERGY      -115.673501212241
Dispersion correction            ... done
Dispersion correction           -0.004468569
FINAL SINGLE POINT ENERGY      -115.673503455364
Dispersion correction            ... done
Dispersion correction           -0.004469049
FINAL SINGLE POINT ENERGY      -115.673503890304
Dispersion correction            ... done
                    ***********************HURRAY********************

CARTESIAN COORDINATES (ANGSTROEM)
---------------------------------
  C     -0.046529    0.661592   -0.000000
  O     -0.041771   -0.758940    0.000000
  H     -1.088389    0.972331   -0.000000
  H      0.875374   -1.051706    0.000000
  H      0.433441    1.082320    0.889356
  H      0.433441    1.082320   -0.889356

 Multiplicity           Mult            ....    1
 Number of Electrons    NEL             ....   18
 Basis Dimension        Dim             ....   55

ORBITAL ENERGIES
----------------

  NO   OCC          E(Eh)            E(eV)
   0   2.0000     -18.742026      -509.9965
   1   2.0000      -9.929995      -270.2089
   2   2.0000      -0.937131       -25.5006
   3   2.0000      -0.621968       -16.9246
   4   2.0000      -0.460111       -12.5203
   5   2.0000      -0.389748       -10.6056
   6   2.0000      -0.379384       -10.3236
   7   2.0000      -0.293013        -7.9733
   8   2.0000      -0.226457        -6.1622
   9   0.0000       0.016227         0.4416
  10   0.0000       0.058126         1.5817
  11   0.0000       0.103455         2.8152
  12   0.0000       0.108814         2.9610
  13   0.0000       0.123398         3.3578

MULLIKEN ATOMIC CHARGES
-----------------------
   0 C :   -0.338090
   1 O :   -0.567780
   2 H :    0.177425
   3 H :    0.417799
   4 H :    0.155323
   5 H :    0.155323
Sum of atomic charges:   -0.0000000

LOEWDIN ATOMIC CHARGES
----------------------
   0 C :   -0.077911
   1 O :   -0.756995
   2 H :    0.175218
   3 H :    0.355110
   4 H :    0.152289
   5 H :    0.152289

  Mayer bond orders larger than 0.100000
B(  0-C ,  1-O ) :   0.9310 B(  0-C ,  2-H ) :   0.9665 B(  0-C ,  4-H ) :   0.9539
B(  0-C ,  5-H ) :   0.9539 B(  1-O ,  3-H ) :   0.7894

Dispersion correction           -0.004469131
FINAL SINGLE POINT ENERGY      -115.673503920010

DIPOLE MOMENT
-------------
                                X             Y             Z
Electronic contribution:     -0.15986      -1.82848       0.00000
Nuclear contribution   :      0.67962       2.19133      -0.00000
                        -----------------------------------------
Total Dipole Moment    :      0.51976       0.36285      -0.00000
                        -----------------------------------------
Magnitude (a.u.)       :      0.63389
Magnitude (Debye)      :      1.61121

Dispersion correction in the Hessian             ... done   (      0.3 sec)

VIBRATIONAL FREQUENCIES
-----------------------

Scaling factor for frequencies =  1.000000000  (already applied!)

   0:         0.00 cm**-1
   1:         0.00 cm**-1
   2:         0.00 cm**-1
   3:         0.00 cm**-1
   4:         0.00 cm**-1
   5:         0.00 cm**-1
   6:       324.62 cm**-1
   7:      1032.56 cm**-1
   8:      1080.52 cm**-1
   9:      1164.35 cm**-1
  10:      1383.29 cm**-1
  11:      1479.26 cm**-1
  12:      1497.55 cm**-1
  13:      1516.36 cm**-1
  14:      2944.92 cm**-1
  15:      2989.58 cm**-1
  16:      3076.19 cm**-1
  17:      3758.23 cm**-1

IR SPECTRUM
-----------

 Mode   freq       eps      Int      T**2         TX        TY        TZ
       cm**-1   L/(mol*cm) km/mol    a.u.
----------------------------------------------------------------------------
  6:    324.62   0.021776  110.05  0.020934  (-0.000000 -0.000000 -0.144686)
  7:   1032.56   0.022695  114.69  0.006859  (-0.001596 -0.082803  0.000000)
  8:   1080.52   0.000613    3.10  0.000177  ( 0.006511  0.011608 -0.000000)
  9:   1164.35   0.000027    0.13  0.000007  (-0.000000 -0.000000 -0.002668)
 10:   1383.29   0.004693   23.71  0.001059  (-0.005167 -0.032124  0.000000)
 11:   1479.26   0.000821    4.15  0.000173  (-0.001518 -0.013070  0.000000)
 12:   1497.55   0.000390    1.97  0.000081  ( 0.000000  0.000000  0.009013)
 13:   1516.36   0.000907    4.59  0.000187  (-0.012388  0.005769 -0.000000)
 14:   2944.92   0.015216   76.90  0.001612  (-0.012539 -0.038147  0.000000)
 15:   2989.58   0.015480   78.23  0.001616  (-0.000000 -0.000000 -0.040198)
 16:   3076.19   0.007114   35.95  0.000722  (-0.026423  0.004851 -0.000000)
 17:   3758.23   0.003022   15.27  0.000251  ( 0.010877 -0.011515 -0.000000)

--------------------------
THERMOCHEMISTRY AT 298.15K
--------------------------

Temperature         ... 298.15 K
Pressure            ... 1.00 atm
Total Mass          ... 32.04 AMU

Throughout the following assumptions are being made:
  (1) The electronic state is orbitally nondegenerate
  (2) There are no thermally accessible electronically excited states
  (3) Hindered rotations indicated by low frequency modes are not
      treated as such but are treated as vibrations and this may
      cause some error
  (4) All equations used are the standard statistical mechanics
      equations for an ideal gas
  (5) All vibrations are strictly harmonic

freq.     324.62  E(vib)   ...       0.24
freq.    1032.56  E(vib)   ...       0.02
freq.    1080.52  E(vib)   ...       0.02
freq.    1164.35  E(vib)   ...       0.01
freq.    1383.29  E(vib)   ...       0.00
freq.    1479.26  E(vib)   ...       0.00
freq.    1497.55  E(vib)   ...       0.00
freq.    1516.36  E(vib)   ...       0.00
freq.    2944.92  E(vib)   ...       0.00
freq.    2989.58  E(vib)   ...       0.00
freq.    3076.19  E(vib)   ...       0.00
freq.    3758.23  E(vib)   ...       0.00

------------
INNER ENERGY
------------

The inner energy is: U= E(el) + E(ZPE) + E(vib) + E(rot) + E(trans)
    E(el)   - is the total energy from the electronic structure calculation
              = E(kin-el) + E(nuc-el) + E(el-el) + E(nuc-nuc)
    E(ZPE)  - the the zero temperature vibrational energy from the frequency calculation
    E(vib)  - the the finite temperature correction to E(ZPE) due to population
              of excited vibrational states
    E(rot)  - is the rotational thermal energy
    E(trans)- is the translational thermal energy

Summary of contributions to the inner energy U:
Electronic energy                ...   -115.67350392 Eh
Zero point energy                ...      0.05068338 Eh      31.80 kcal/mol
Thermal vibrational correction   ...      0.00049191 Eh       0.31 kcal/mol
Thermal rotational correction    ...      0.00141627 Eh       0.89 kcal/mol
Thermal translational correction ...      0.00141627 Eh       0.89 kcal/mol
-----------------------------------------------------------------------
Total thermal energy                   -115.61949608 Eh

Summary of corrections to the electronic energy:
(perhaps to be used in another calculation)
Total thermal correction                  0.00332446 Eh       2.09 kcal/mol
Non-thermal (ZPE) correction              0.05068338 Eh      31.80 kcal/mol
-----------------------------------------------------------------------
Total correction                          0.05400784 Eh      33.89 kcal/mol

--------
ENTHALPY
--------

The enthalpy is H = U + kB*T
                kB is Boltzmann's constant
Total free energy                 ...   -115.61949608 Eh
Thermal Enthalpy correction       ...      0.00094421 Eh       0.59 kcal/mol
-----------------------------------------------------------------------
Total Enthalpy                    ...   -115.61855187 Eh

Note: Rotational entropy computed according to Herzberg
Infrared and Raman Spectra, Chapter V,1, Van Nostrand Reinhold, 1945
Point Group:  Cs, Symmetry Number:   1
Rotational constants in cm-1:     4.290718     0.825768     0.796892

Vibrational entropy computed according to the QRRHO of S. Grimme
Chem.Eur.J. 2012 18 9955

-------
ENTROPY
-------

The entropy contributions are T*S = T*(S(el)+S(vib)+S(rot)+S(trans))
     S(el)   - electronic entropy
     S(vib)  - vibrational entropy
     S(rot)  - rotational entropy
     S(trans)- translational entropy
The entropies will be listed as multiplied by the temperature to get
units of energy

Electronic entropy                ...      0.00000000 Eh      0.00 kcal/mol
Vibrational entropy               ...      0.00073309 Eh      0.46 kcal/mol
Rotational entropy                ...      0.00902079 Eh      5.66 kcal/mol
Translational entropy             ...      0.01725935 Eh     10.83 kcal/mol
-----------------------------------------------------------------------
Final entropy term                ...      0.02701323 Eh     16.95 kcal/mol

In case the symmetry of your molecule has not been determined correctly
or in case you have a reason to use a different symmetry number we print
out the resulting rotational entropy values for sn=1,12 :
 --------------------------------------------------------
|  sn= 1 | S(rot)=       0.00902079 Eh      5.66 kcal/mol|
|  sn= 2 | S(rot)=       0.00836634 Eh      5.25 kcal/mol|
|  sn= 3 | S(rot)=       0.00798350 Eh      5.01 kcal/mol|
|  sn= 4 | S(rot)=       0.00771188 Eh      4.84 kcal/mol|
|  sn= 5 | S(rot)=       0.00750119 Eh      4.71 kcal/mol|
|  sn= 6 | S(rot)=       0.00732905 Eh      4.60 kcal/mol|
|  sn= 7 | S(rot)=       0.00718350 Eh      4.51 kcal/mol|
|  sn= 8 | S(rot)=       0.00705742 Eh      4.43 kcal/mol|
|  sn= 9 | S(rot)=       0.00694621 Eh      4.36 kcal/mol|
|  sn=10 | S(rot)=       0.00684673 Eh      4.30 kcal/mol|
|  sn=11 | S(rot)=       0.00675674 Eh      4.24 kcal/mol|
|  sn=12 | S(rot)=       0.00667459 Eh      4.19 kcal/mol|
 --------------------------------------------------------

-------------------
GIBBS FREE ENERGY
-------------------

The Gibbs free energy is G = H - T*S

Total enthalpy                    ...   -115.61855187 Eh
Total entropy correction          ...     -0.02701323 Eh    -16.95 kcal/mol
-----------------------------------------------------------------------
Final Gibbs free energy         ...   -115.64556510 Eh

For completeness - the Gibbs free energy minus the electronic energy
G-E(el)                           ...      0.02793882 Eh     17.53 kcal/mol

                             ****ORCA TERMINATED NORMALLY****
TOTAL RUN TIME: 0 days 0 hours 1 minutes 41 seconds 902 msec
