                         Program Version 5.0.1 -  RELEASE  -
|  1> !B97-3c
|  2> !opt freq
|  3> %pal
|  4> nprocs 1
|  5> end
|  6> *xyz 0 1
|  7> H        -0.51834056273939   -0.31347347662373   -3.19289586567224
|  8> O         0.37659754773774   -0.67801074079271   -3.04506515334007
|  9> H         1.04671633295047   -0.05237740129243   -3.36450074679592
| 10> *
| 11>
| 12>                          ****END OF INPUT****
 Total Charge           Charge          ....    0
 Multiplicity           Mult            ....    1
 Number of Electrons    NEL             ....   10
Dispersion correction           -0.000846162
FINAL SINGLE POINT ENERGY       -76.397002884244
Dispersion correction            ... done
Dispersion correction           -0.000846889
FINAL SINGLE POINT ENERGY       -76.398164379736
Dispersion correction            ... done
Dispersion correction           -0.000847178
FINAL SINGLE POINT ENERGY       -76.398346980911
Dispersion correction            ... done
Dispersion correction           -0.000847241
FINAL SINGLE POINT ENERGY       -76.398366193377
Dispersion correction            ... done
                    ***********************HURRAY********************

CARTESIAN COORDINATES (ANGSTROEM)
---------------------------------
  H     -0.479891   -0.296998   -3.201928
  O      0.378888   -0.699264   -3.034960
  H      1.005977   -0.047600   -3.365574

 Multiplicity           Mult            ....    1
 Number of Electrons    NEL             ....   10
 Basis Dimension        Dim             ....   30

ORBITAL ENERGIES
----------------

  NO   OCC          E(Eh)            E(eV)
   0   2.0000     -18.744318      -510.0588
   1   2.0000      -0.931114       -25.3369
   2   2.0000      -0.481696       -13.1076
   3   2.0000      -0.338363        -9.2073
   4   2.0000      -0.256334        -6.9752
   5   0.0000       0.005520         0.1502
   6   0.0000       0.078962         2.1487
   7   0.0000       0.259413         7.0590
   8   0.0000       0.279004         7.5921
   9   0.0000       0.320780         8.7289

MULLIKEN ATOMIC CHARGES
-----------------------
   0 H :    0.432269
   1 O :   -0.864534
   2 H :    0.432265
Sum of atomic charges:   -0.0000000

LOEWDIN ATOMIC CHARGES
----------------------
   0 H :    0.357465
   1 O :   -0.714930
   2 H :    0.357465

  Mayer bond orders larger than 0.100000
B(  0-H ,  1-O ) :   0.7893 B(  1-O ,  2-H ) :   0.7893

Dispersion correction           -0.000847237
FINAL SINGLE POINT ENERGY       -76.398366369633

DIPOLE MOMENT
-------------
                                X             Y             Z
Electronic contribution:      0.05205      -0.23676       0.11178
Nuclear contribution   :     -0.19285       0.87725      -0.41417
                        -----------------------------------------
Total Dipole Moment    :     -0.14080       0.64048      -0.30238
                        -----------------------------------------
Magnitude (a.u.)       :      0.72214
Magnitude (Debye)      :      1.83553

Dispersion correction in the Hessian             ... done   (      0.4 sec)

VIBRATIONAL FREQUENCIES
-----------------------

Scaling factor for frequencies =  1.000000000  (already applied!)

   0:         0.00 cm**-1
   1:         0.00 cm**-1
   2:         0.00 cm**-1
   3:         0.00 cm**-1
   4:         0.00 cm**-1
   5:         0.00 cm**-1
   6:      1711.76 cm**-1
   7:      3737.37 cm**-1
   8:      3849.17 cm**-1

IR SPECTRUM
-----------

 Mode   freq       eps      Int      T**2         TX        TY        TZ
       cm**-1   L/(mol*cm) km/mol    a.u.
----------------------------------------------------------------------------
  6:   1711.76   0.014742   74.50  0.002688  ( 0.010110 -0.045978  0.021713)
  7:   3737.37   0.000042    0.21  0.000004  (-0.000312  0.001641 -0.000859)
  8:   3849.17   0.007004   35.40  0.000568  (-0.023377 -0.003859  0.002550)

--------------------------
THERMOCHEMISTRY AT 298.15K
--------------------------

Temperature         ... 298.15 K
Pressure            ... 1.00 atm
Total Mass          ... 18.02 AMU

Throughout the following assumptions are being made:
  (1) The electronic state is orbitally nondegenerate
  (2) There are no thermally accessible electronically excited states
  (3) Hindered rotations indicated by low frequency modes are not
      treated as such but are treated as vibrations and this may
      cause some error
  (4) All equations used are the standard statistical mechanics
      equations for an ideal gas
  (5) All vibrations are strictly harmonic

freq.    1711.76  E(vib)   ...       0.00
freq.    3737.37  E(vib)   ...       0.00
freq.    3849.17  E(vib)   ...       0.00

------------
INNER ENERGY
------------

The inner energy is: U= E(el) + E(ZPE) + E(vib) + E(rot) + E(trans)
    E(el)   - is the total energy from the electronic structure calculation
              = E(kin-el) + E(nuc-el) + E(el-el) + E(nuc-nuc)
    E(ZPE)  - the the zero temperature vibrational energy from the frequency calculation
    E(vib)  - the the finite temperature correction to E(ZPE) due to population
              of excited vibrational states
    E(rot)  - is the rotational thermal energy
    E(trans)- is the translational thermal energy

Summary of contributions to the inner energy U:
Electronic energy                ...    -76.39836637 Eh
Zero point energy                ...      0.02118309 Eh      13.29 kcal/mol
Thermal vibrational correction   ...      0.00000202 Eh       0.00 kcal/mol
Thermal rotational correction    ...      0.00141627 Eh       0.89 kcal/mol
Thermal translational correction ...      0.00141627 Eh       0.89 kcal/mol
-----------------------------------------------------------------------
Total thermal energy                    -76.37434872 Eh

Summary of corrections to the electronic energy:
(perhaps to be used in another calculation)
Total thermal correction                  0.00283456 Eh       1.78 kcal/mol
Non-thermal (ZPE) correction              0.02118309 Eh      13.29 kcal/mol
-----------------------------------------------------------------------
Total correction                          0.02401765 Eh      15.07 kcal/mol

--------
ENTHALPY
--------

The enthalpy is H = U + kB*T
                kB is Boltzmann's constant
Total free energy                 ...    -76.37434872 Eh
Thermal Enthalpy correction       ...      0.00094421 Eh       0.59 kcal/mol
-----------------------------------------------------------------------
Total Enthalpy                    ...    -76.37340451 Eh

Note: Rotational entropy computed according to Herzberg
Infrared and Raman Spectra, Chapter V,1, Van Nostrand Reinhold, 1945
Point Group:  C2v, Symmetry Number:   2
Rotational constants in cm-1:    26.672445    14.562849     9.419765

Vibrational entropy computed according to the QRRHO of S. Grimme
Chem.Eur.J. 2012 18 9955

-------
ENTROPY
-------

The entropy contributions are T*S = T*(S(el)+S(vib)+S(rot)+S(trans))
     S(el)   - electronic entropy
     S(vib)  - vibrational entropy
     S(rot)  - rotational entropy
     S(trans)- translational entropy
The entropies will be listed as multiplied by the temperature to get
units of energy

Electronic entropy                ...      0.00000000 Eh      0.00 kcal/mol
Vibrational entropy               ...      0.00000226 Eh      0.00 kcal/mol
Rotational entropy                ...      0.00498289 Eh      3.13 kcal/mol
Translational entropy             ...      0.01644380 Eh     10.32 kcal/mol
-----------------------------------------------------------------------
Final entropy term                ...      0.02142896 Eh     13.45 kcal/mol

In case the symmetry of your molecule has not been determined correctly
or in case you have a reason to use a different symmetry number we print
out the resulting rotational entropy values for sn=1,12 :
 --------------------------------------------------------
|  sn= 1 | S(rot)=       0.00563735 Eh      3.54 kcal/mol|
|  sn= 2 | S(rot)=       0.00498289 Eh      3.13 kcal/mol|
|  sn= 3 | S(rot)=       0.00460006 Eh      2.89 kcal/mol|
|  sn= 4 | S(rot)=       0.00432844 Eh      2.72 kcal/mol|
|  sn= 5 | S(rot)=       0.00411775 Eh      2.58 kcal/mol|
|  sn= 6 | S(rot)=       0.00394560 Eh      2.48 kcal/mol|
|  sn= 7 | S(rot)=       0.00380006 Eh      2.38 kcal/mol|
|  sn= 8 | S(rot)=       0.00367398 Eh      2.31 kcal/mol|
|  sn= 9 | S(rot)=       0.00356277 Eh      2.24 kcal/mol|
|  sn=10 | S(rot)=       0.00346329 Eh      2.17 kcal/mol|
|  sn=11 | S(rot)=       0.00337330 Eh      2.12 kcal/mol|
|  sn=12 | S(rot)=       0.00329115 Eh      2.07 kcal/mol|
 --------------------------------------------------------

-------------------
GIBBS FREE ENERGY
-------------------

The Gibbs free energy is G = H - T*S

Total enthalpy                    ...    -76.37340451 Eh
Total entropy correction          ...     -0.02142896 Eh    -13.45 kcal/mol
-----------------------------------------------------------------------
Final Gibbs free energy         ...    -76.39483346 Eh

For completeness - the Gibbs free energy minus the electronic energy
G-E(el)                           ...      0.00353291 Eh      2.22 kcal/mol

                             ****ORCA TERMINATED NORMALLY****
TOTAL RUN TIME: 0 days 0 hours 0 minutes 22 seconds 861 msec
