 Gaussian 16, Revision B.01,
 Gaussian 16:  ES64L-G16RevB.01 20-Dec-2017

 --------------------
 #P B97D3/aug-cc-pvtz
 --------------------

 -----
 Title
 -----
 Symbolic Z-matrix:
 Charge =  0 Multiplicity = 1

                         Standard orientation:
 ---------------------------------------------------------------------
 Center     Atomic      Atomic             Coordinates (Angstroms)
 Number     Number       Type             X           Y           Z
 ---------------------------------------------------------------------
      1          7           0       -0.002116    0.000080   -0.113951
      2          1           0        0.354967    0.873502    0.264563
      3          1           0        0.592373   -0.737851    0.263313
      4          1           0       -0.932530   -0.136210    0.269780
 ---------------------------------------------------------------------

 SCF Done:  E(RB97D3) =  -56.5553295892     A.U. after    9 cycles

 The electronic state is 1-A.
 Alpha  occ. eigenvalues --  -13.97760  -0.78014  -0.41716  -0.41413  -0.22686
 Alpha virt. eigenvalues --   -0.02403   0.02167   0.02182   0.06362   0.08397
 Alpha virt. eigenvalues --    0.11077   0.11117   0.11627   0.11707   0.15650
 Alpha virt. eigenvalues --    0.15711   0.16523   0.25951   0.28712   0.29557

 Mulliken charges:
               1
     1  N   -0.392432
     2  H    0.130351
     3  H    0.132219
     4  H    0.129862
 Sum of Mulliken charges =  -0.00000

 Dipole moment (field-independent basis, Debye):
    X=              0.0163    Y=              0.0003    Z=              1.4552  Tot=              1.4552
 Quadrupole moment (field-independent basis, Debye-Ang):
   XX=             -6.3569   YY=             -6.4068   ZZ=             -9.4982
   XY=              0.0040   XZ=             -0.0098   YZ=              0.0022

 Normal termination of Gaussian 16 at Mon Feb  8 14:52:25 2021.
